TITLE= "F6 tests at ONERA S2MA W.T. August 1990 lot  182 Mach  0.7505 Incidence  1.738 CL 0.5985 - F6 + long nacelles (pos. 1)"
VARIABLES= "X", "Y", "Z", "U", "V", "W", "-Cp", "Pi", "Mach", "X/C"
ZONE T="wing section 1 y/b 0.15", I=   32, J=    1, K=    1, F=POINT
  0.40264E+00  0.08785E+00  0.00000E+00  0.0  0.0  0.0 -0.83854E+00  0.0  0.35671E+00  0.00000E+00
  0.40817E+00  0.08785E+00  0.00000E+00  0.0  0.0  0.0 -0.39710E+00  0.0  0.58030E+00  0.30000E-01
  0.41186E+00  0.08785E+00  0.00000E+00  0.0  0.0  0.0 -0.18192E+00  0.0  0.67393E+00  0.50000E-01
  0.42108E+00  0.08785E+00  0.00000E+00  0.0  0.0  0.0  0.38960E-01  0.0  0.76671E+00  0.10000E+00
  0.43953E+00  0.08785E+00  0.00000E+00  0.0  0.0  0.0  0.17843E+00  0.0  0.82483E+00  0.20000E+00
  0.45798E+00  0.08785E+00  0.00000E+00  0.0  0.0  0.0  0.26646E+00  0.0  0.86164E+00  0.30000E+00
  0.47643E+00  0.08785E+00  0.00000E+00  0.0  0.0  0.0  0.31142E+00  0.0  0.88054E+00  0.40000E+00
  0.51332E+00  0.08785E+00  0.00000E+00  0.0  0.0  0.0  0.19995E+00  0.0  0.83381E+00  0.60000E+00
  0.53177E+00  0.08785E+00  0.00000E+00  0.0  0.0  0.0 -0.79117E-02  0.0  0.74716E+00  0.70000E+00
  0.55022E+00  0.08785E+00  0.00000E+00  0.0  0.0  0.0 -0.18886E+00  0.0  0.67098E+00  0.80000E+00
  0.56866E+00  0.08785E+00  0.00000E+00  0.0  0.0  0.0 -0.22572E+00  0.0  0.65523E+00  0.90000E+00
  0.57789E+00  0.08785E+00  0.00000E+00  0.0  0.0  0.0 -0.19687E+00  0.0  0.66756E+00  0.95000E+00
  0.58711E+00  0.08785E+00  0.00000E+00  0.0  0.0  0.0 -0.13864E+00  0.0  0.69228E+00  0.10000E+01
  0.57789E+00  0.08785E+00  0.00000E+00  0.0  0.0  0.0  0.83623E-01  0.0  0.78532E+00  0.95000E+00
  0.56866E+00  0.08785E+00  0.00000E+00  0.0  0.0  0.0  0.15865E+00  0.0  0.81658E+00  0.90000E+00
  0.55022E+00  0.08785E+00  0.00000E+00  0.0  0.0  0.0  0.23590E+00  0.0  0.84884E+00  0.80000E+00
  0.53177E+00  0.08785E+00  0.00000E+00  0.0  0.0  0.0  0.33339E+00  0.0  0.88980E+00  0.70000E+00
  0.52254E+00  0.08785E+00  0.00000E+00  0.0  0.0  0.0  0.39264E+00  0.0  0.91489E+00  0.65000E+00
  0.51332E+00  0.08785E+00  0.00000E+00  0.0  0.0  0.0  0.46086E+00  0.0  0.94404E+00  0.60000E+00
  0.50410E+00  0.08785E+00  0.00000E+00  0.0  0.0  0.0  0.50534E+00  0.0  0.96321E+00  0.55000E+00
  0.49487E+00  0.08785E+00  0.00000E+00  0.0  0.0  0.0  0.55730E+00  0.0  0.98582E+00  0.50000E+00
  0.48565E+00  0.08785E+00  0.00000E+00  0.0  0.0  0.0  0.59467E+00  0.0  0.10022E+01  0.45000E+00
  0.47643E+00  0.08785E+00  0.00000E+00  0.0  0.0  0.0  0.81511E+00  0.0  0.11022E+01  0.40000E+00
  0.46720E+00  0.08785E+00  0.00000E+00  0.0  0.0  0.0  0.10246E+01  0.0  0.12039E+01  0.35000E+00
  0.44876E+00  0.08785E+00  0.00000E+00  0.0  0.0  0.0  0.10838E+01  0.0  0.12343E+01  0.25000E+00
  0.43953E+00  0.08785E+00  0.00000E+00  0.0  0.0  0.0  0.10644E+01  0.0  0.12243E+01  0.20000E+00
  0.43031E+00  0.08785E+00  0.00000E+00  0.0  0.0  0.0  0.10480E+01  0.0  0.12158E+01  0.15000E+00
  0.42108E+00  0.08785E+00  0.00000E+00  0.0  0.0  0.0  0.11109E+01  0.0  0.12485E+01  0.10000E+00
  0.41186E+00  0.08785E+00  0.00000E+00  0.0  0.0  0.0  0.10362E+01  0.0  0.12099E+01  0.50000E-01
  0.40817E+00  0.08785E+00  0.00000E+00  0.0  0.0  0.0  0.81382E+00  0.0  0.11016E+01  0.30000E-01
  0.40633E+00  0.08785E+00  0.00000E+00  0.0  0.0  0.0  0.53663E+00  0.0  0.97680E+00  0.20000E-01
  0.40448E+00  0.08785E+00  0.00000E+00  0.0  0.0  0.0  0.12654E+00  0.0  0.80320E+00  0.10000E-01
ZONE T="wing section 2 y/b 0.239", I=   33, J=    1, K=    1, F=POINT
  0.41858E+00  0.13987E+00  0.00000E+00  0.0  0.0  0.0 -0.66982E+00  0.0  0.45047E+00  0.00000E+00
  0.42026E+00  0.13987E+00  0.00000E+00  0.0  0.0  0.0 -0.62541E+00  0.0  0.47296E+00  0.10000E-01
  0.42700E+00  0.13987E+00  0.00000E+00  0.0  0.0  0.0 -0.10570E+00  0.0  0.70617E+00  0.50000E-01
  0.43543E+00  0.13987E+00  0.00000E+00  0.0  0.0  0.0  0.15696E+00  0.0  0.81588E+00  0.10000E+00
  0.45228E+00  0.13987E+00  0.00000E+00  0.0  0.0  0.0  0.34808E+00  0.0  0.89600E+00  0.20000E+00
  0.46914E+00  0.13987E+00  0.00000E+00  0.0  0.0  0.0  0.45201E+00  0.0  0.94024E+00  0.30000E+00
  0.48599E+00  0.13987E+00  0.00000E+00  0.0  0.0  0.0  0.40088E+00  0.0  0.91840E+00  0.40000E+00
  0.50284E+00  0.13987E+00  0.00000E+00  0.0  0.0  0.0  0.30784E+00  0.0  0.87903E+00  0.50000E+00
  0.51970E+00  0.13987E+00  0.00000E+00  0.0  0.0  0.0  0.12710E+00  0.0  0.80343E+00  0.60000E+00
  0.53655E+00  0.13987E+00  0.00000E+00  0.0  0.0  0.0 -0.72177E-01  0.0  0.72026E+00  0.70000E+00
  0.55340E+00  0.13987E+00  0.00000E+00  0.0  0.0  0.0 -0.25606E+00  0.0  0.64219E+00  0.80000E+00
  0.57026E+00  0.13987E+00  0.00000E+00  0.0  0.0  0.0 -0.29213E+00  0.0  0.62658E+00  0.90000E+00
  0.57868E+00  0.13987E+00  0.00000E+00  0.0  0.0  0.0 -0.26899E+00  0.0  0.63661E+00  0.95000E+00
  0.58711E+00  0.13987E+00  0.00000E+00  0.0  0.0  0.0 -0.13864E+00  0.0  0.69228E+00  0.10000E+01
  0.57868E+00  0.13987E+00  0.00000E+00  0.0  0.0  0.0 -0.44127E-01  0.0  0.73202E+00  0.95000E+00
  0.57026E+00  0.13987E+00  0.00000E+00  0.0  0.0  0.0  0.85817E-01  0.0  0.78624E+00  0.90000E+00
  0.55340E+00  0.13987E+00  0.00000E+00  0.0  0.0  0.0  0.26989E+00  0.0  0.86308E+00  0.80000E+00
  0.53655E+00  0.13987E+00  0.00000E+00  0.0  0.0  0.0  0.39825E+00  0.0  0.91728E+00  0.70000E+00
  0.52812E+00  0.13987E+00  0.00000E+00  0.0  0.0  0.0  0.45942E+00  0.0  0.94342E+00  0.65000E+00
  0.51970E+00  0.13987E+00  0.00000E+00  0.0  0.0  0.0  0.50025E+00  0.0  0.96101E+00  0.60000E+00
  0.51127E+00  0.13987E+00  0.00000E+00  0.0  0.0  0.0  0.51256E+00  0.0  0.96634E+00  0.55000E+00
  0.50284E+00  0.13987E+00  0.00000E+00  0.0  0.0  0.0  0.50874E+00  0.0  0.96469E+00  0.50000E+00
  0.49442E+00  0.13987E+00  0.00000E+00  0.0  0.0  0.0  0.51514E+00  0.0  0.96746E+00  0.45000E+00
  0.48599E+00  0.13987E+00  0.00000E+00  0.0  0.0  0.0  0.55115E+00  0.0  0.98313E+00  0.40000E+00
  0.47756E+00  0.13987E+00  0.00000E+00  0.0  0.0  0.0  0.85242E+00  0.0  0.11197E+01  0.35000E+00
  0.46914E+00  0.13987E+00  0.00000E+00  0.0  0.0  0.0  0.11398E+01  0.0  0.12638E+01  0.30000E+00
  0.46071E+00  0.13987E+00  0.00000E+00  0.0  0.0  0.0  0.12177E+01  0.0  0.13063E+01  0.25000E+00
  0.45228E+00  0.13987E+00  0.00000E+00  0.0  0.0  0.0  0.14645E+01  0.0  0.14544E+01  0.20000E+00
  0.44386E+00  0.13987E+00  0.00000E+00  0.0  0.0  0.0  0.15592E+01  0.0  0.15185E+01  0.15000E+00
  0.43543E+00  0.13987E+00  0.00000E+00  0.0  0.0  0.0  0.15356E+01  0.0  0.15020E+01  0.10000E+00
  0.42700E+00  0.13987E+00  0.00000E+00  0.0  0.0  0.0  0.13703E+01  0.0  0.13950E+01  0.50000E-01
  0.42363E+00  0.13987E+00  0.00000E+00  0.0  0.0  0.0  0.98358E+00  0.0  0.11834E+01  0.30000E-01
  0.42195E+00  0.13987E+00  0.00000E+00  0.0  0.0  0.0  0.74548E+00  0.0  0.10699E+01  0.20000E-01
ZONE T="wing section 3 y/b 0.331", I=   33, J=    1, K=    1, F=POINT
  0.44655E+00  0.19453E+00  0.00000E+00  0.0  0.0  0.0 -0.57102E+00  0.0  0.49965E+00  0.00000E+00
  0.44795E+00  0.19453E+00  0.00000E+00  0.0  0.0  0.0 -0.63060E+00  0.0  0.47037E+00  0.10000E-01
  0.45076E+00  0.19453E+00  0.00000E+00  0.0  0.0  0.0 -0.34409E+00  0.0  0.60385E+00  0.30000E-01
  0.45357E+00  0.19453E+00  0.00000E+00  0.0  0.0  0.0 -0.74051E-01  0.0  0.71947E+00  0.50000E-01
  0.47466E+00  0.19453E+00  0.00000E+00  0.0  0.0  0.0  0.94015E+00  0.0  0.11619E+01  0.20000E+00
  0.48871E+00  0.19453E+00  0.00000E+00  0.0  0.0  0.0  0.46635E+00  0.0  0.94640E+00  0.30000E+00
  0.50277E+00  0.19453E+00  0.00000E+00  0.0  0.0  0.0  0.28663E+00  0.0  0.87011E+00  0.40000E+00
  0.51683E+00  0.19453E+00  0.00000E+00  0.0  0.0  0.0  0.97056E-01  0.0  0.79092E+00  0.50000E+00
  0.53088E+00  0.19453E+00  0.00000E+00  0.0  0.0  0.0 -0.33094E-01  0.0  0.73663E+00  0.60000E+00
  0.54494E+00  0.19453E+00  0.00000E+00  0.0  0.0  0.0 -0.14880E+00  0.0  0.68798E+00  0.70000E+00
  0.55900E+00  0.19453E+00  0.00000E+00  0.0  0.0  0.0 -0.26497E+00  0.0  0.63835E+00  0.80000E+00
  0.57305E+00  0.19453E+00  0.00000E+00  0.0  0.0  0.0 -0.30500E+00  0.0  0.62098E+00  0.90000E+00
  0.58008E+00  0.19453E+00  0.00000E+00  0.0  0.0  0.0 -0.28073E+00  0.0  0.63153E+00  0.95000E+00
  0.58711E+00  0.19453E+00  0.00000E+00  0.0  0.0  0.0 -0.12108E+00  0.0  0.69969E+00  0.10000E+01
  0.58008E+00  0.19453E+00  0.00000E+00  0.0  0.0  0.0 -0.47079E-01  0.0  0.73078E+00  0.95000E+00
  0.57305E+00  0.19453E+00  0.00000E+00  0.0  0.0  0.0  0.54504E-01  0.0  0.77319E+00  0.90000E+00
  0.55900E+00  0.19453E+00  0.00000E+00  0.0  0.0  0.0  0.27209E+00  0.0  0.86401E+00  0.80000E+00
  0.54494E+00  0.19453E+00  0.00000E+00  0.0  0.0  0.0  0.46960E+00  0.0  0.94779E+00  0.70000E+00
  0.53791E+00  0.19453E+00  0.00000E+00  0.0  0.0  0.0  0.55107E+00  0.0  0.98309E+00  0.65000E+00
  0.53088E+00  0.19453E+00  0.00000E+00  0.0  0.0  0.0  0.59284E+00  0.0  0.10014E+01  0.60000E+00
  0.52386E+00  0.19453E+00  0.00000E+00  0.0  0.0  0.0  0.58284E+00  0.0  0.99701E+00  0.55000E+00
  0.51683E+00  0.19453E+00  0.00000E+00  0.0  0.0  0.0  0.58003E+00  0.0  0.99578E+00  0.50000E+00
  0.50980E+00  0.19453E+00  0.00000E+00  0.0  0.0  0.0  0.56959E+00  0.0  0.99120E+00  0.45000E+00
  0.50277E+00  0.19453E+00  0.00000E+00  0.0  0.0  0.0  0.59693E+00  0.0  0.10032E+01  0.40000E+00
  0.49574E+00  0.19453E+00  0.00000E+00  0.0  0.0  0.0  0.78643E+00  0.0  0.10888E+01  0.35000E+00
  0.48871E+00  0.19453E+00  0.00000E+00  0.0  0.0  0.0  0.12955E+01  0.0  0.13505E+01  0.30000E+00
  0.48169E+00  0.19453E+00  0.00000E+00  0.0  0.0  0.0  0.13256E+01  0.0  0.13681E+01  0.25000E+00
  0.47466E+00  0.19453E+00  0.00000E+00  0.0  0.0  0.0  0.13665E+01  0.0  0.13927E+01  0.20000E+00
  0.46763E+00  0.19453E+00  0.00000E+00  0.0  0.0  0.0  0.14023E+01  0.0  0.14148E+01  0.15000E+00
  0.46060E+00  0.19453E+00  0.00000E+00  0.0  0.0  0.0  0.14518E+01  0.0  0.14461E+01  0.10000E+00
  0.45357E+00  0.19453E+00  0.00000E+00  0.0  0.0  0.0  0.13236E+01  0.0  0.13670E+01  0.50000E-01
  0.44936E+00  0.19453E+00  0.00000E+00  0.0  0.0  0.0  0.80537E+00  0.0  0.10976E+01  0.20000E-01
  0.44795E+00  0.19453E+00  0.00000E+00  0.0  0.0  0.0  0.48308E+00  0.0  0.95360E+00  0.10000E-01
ZONE T="wing section 4 y/b 0.377", I=   32, J=    1, K=    1, F=POINT
  0.46038E+00  0.22156E+00  0.00000E+00  0.0  0.0  0.0 -0.87118E+00  0.0  0.33639E+00  0.00000E+00
  0.46165E+00  0.22156E+00  0.00000E+00  0.0  0.0  0.0 -0.23573E+00  0.0  0.65094E+00  0.10000E-01
  0.46418E+00  0.22156E+00  0.00000E+00  0.0  0.0  0.0  0.60084E-01  0.0  0.77552E+00  0.30000E-01
  0.46672E+00  0.22156E+00  0.00000E+00  0.0  0.0  0.0  0.12458E+00  0.0  0.80238E+00  0.50000E-01
  0.47305E+00  0.22156E+00  0.00000E+00  0.0  0.0  0.0  0.11705E+00  0.0  0.79925E+00  0.10000E+00
  0.48573E+00  0.22156E+00  0.00000E+00  0.0  0.0  0.0  0.15645E+00  0.0  0.81566E+00  0.20000E+00
  0.49840E+00  0.22156E+00  0.00000E+00  0.0  0.0  0.0  0.22173E+00  0.0  0.84292E+00  0.30000E+00
  0.51107E+00  0.22156E+00  0.00000E+00  0.0  0.0  0.0  0.20466E+00  0.0  0.83578E+00  0.40000E+00
  0.52374E+00  0.22156E+00  0.00000E+00  0.0  0.0  0.0  0.10452E+00  0.0  0.79403E+00  0.50000E+00
  0.53642E+00  0.22156E+00  0.00000E+00  0.0  0.0  0.0 -0.11414E-01  0.0  0.74570E+00  0.60000E+00
  0.54909E+00  0.22156E+00  0.00000E+00  0.0  0.0  0.0 -0.13778E+00  0.0  0.69264E+00  0.70000E+00
  0.56176E+00  0.22156E+00  0.00000E+00  0.0  0.0  0.0 -0.30088E+00  0.0  0.62277E+00  0.80000E+00
  0.57444E+00  0.22156E+00  0.00000E+00  0.0  0.0  0.0 -0.33254E+00  0.0  0.60893E+00  0.90000E+00
  0.58077E+00  0.22156E+00  0.00000E+00  0.0  0.0  0.0 -0.29102E+00  0.0  0.62706E+00  0.95000E+00
  0.58711E+00  0.22156E+00  0.00000E+00  0.0  0.0  0.0 -0.97846E-01  0.0  0.70948E+00  0.10000E+01
  0.57444E+00  0.22156E+00  0.00000E+00  0.0  0.0  0.0  0.67846E-01  0.0  0.77875E+00  0.90000E+00
  0.56176E+00  0.22156E+00  0.00000E+00  0.0  0.0  0.0  0.30893E+00  0.0  0.87949E+00  0.80000E+00
  0.54909E+00  0.22156E+00  0.00000E+00  0.0  0.0  0.0  0.53580E+00  0.0  0.97644E+00  0.70000E+00
  0.54275E+00  0.22156E+00  0.00000E+00  0.0  0.0  0.0  0.62141E+00  0.0  0.10140E+01  0.65000E+00
  0.53642E+00  0.22156E+00  0.00000E+00  0.0  0.0  0.0  0.65556E+00  0.0  0.10292E+01  0.60000E+00
  0.53008E+00  0.22156E+00  0.00000E+00  0.0  0.0  0.0  0.64013E+00  0.0  0.10224E+01  0.55000E+00
  0.52374E+00  0.22156E+00  0.00000E+00  0.0  0.0  0.0  0.61764E+00  0.0  0.10124E+01  0.50000E+00
  0.51741E+00  0.22156E+00  0.00000E+00  0.0  0.0  0.0  0.60586E+00  0.0  0.10072E+01  0.45000E+00
  0.51107E+00  0.22156E+00  0.00000E+00  0.0  0.0  0.0  0.67890E+00  0.0  0.10397E+01  0.40000E+00
  0.50474E+00  0.22156E+00  0.00000E+00  0.0  0.0  0.0  0.12316E+01  0.0  0.13140E+01  0.35000E+00
  0.49840E+00  0.22156E+00  0.00000E+00  0.0  0.0  0.0  0.12406E+01  0.0  0.13191E+01  0.30000E+00
  0.49206E+00  0.22156E+00  0.00000E+00  0.0  0.0  0.0  0.12548E+01  0.0  0.13271E+01  0.25000E+00
  0.48573E+00  0.22156E+00  0.00000E+00  0.0  0.0  0.0  0.12223E+01  0.0  0.13088E+01  0.20000E+00
  0.47939E+00  0.22156E+00  0.00000E+00  0.0  0.0  0.0  0.11675E+01  0.0  0.12787E+01  0.15000E+00
  0.47305E+00  0.22156E+00  0.00000E+00  0.0  0.0  0.0  0.11295E+01  0.0  0.12583E+01  0.10000E+00
  0.46672E+00  0.22156E+00  0.00000E+00  0.0  0.0  0.0  0.86818E+00  0.0  0.11272E+01  0.50000E-01
  0.46291E+00  0.22156E+00  0.00000E+00  0.0  0.0  0.0  0.26767E+00  0.0  0.86215E+00  0.20000E-01
ZONE T="wing section 5 y/b 0.411", I=   32, J=    1, K=    1, F=POINT
  0.47000E+00  0.24037E+00  0.00000E+00  0.0  0.0  0.0 -0.87213E+00  0.0  0.33579E+00  0.00000E+00
  0.47119E+00  0.24037E+00  0.00000E+00  0.0  0.0  0.0 -0.35782E+00  0.0  0.59778E+00  0.10000E-01
  0.47357E+00  0.24037E+00  0.00000E+00  0.0  0.0  0.0 -0.73570E-01  0.0  0.71968E+00  0.30000E-01
  0.47595E+00  0.24037E+00  0.00000E+00  0.0  0.0  0.0 -0.43902E-02  0.0  0.74863E+00  0.50000E-01
  0.48189E+00  0.24037E+00  0.00000E+00  0.0  0.0  0.0  0.63586E-01  0.0  0.77698E+00  0.10000E+00
  0.49379E+00  0.24037E+00  0.00000E+00  0.0  0.0  0.0  0.15309E+00  0.0  0.81426E+00  0.20000E+00
  0.50568E+00  0.24037E+00  0.00000E+00  0.0  0.0  0.0  0.22032E+00  0.0  0.84232E+00  0.30000E+00
  0.51757E+00  0.24037E+00  0.00000E+00  0.0  0.0  0.0  0.18261E+00  0.0  0.82657E+00  0.40000E+00
  0.52946E+00  0.24037E+00  0.00000E+00  0.0  0.0  0.0  0.11937E+00  0.0  0.80021E+00  0.50000E+00
  0.54135E+00  0.24037E+00  0.00000E+00  0.0  0.0  0.0  0.18396E-01  0.0  0.75814E+00  0.60000E+00
  0.55325E+00  0.24037E+00  0.00000E+00  0.0  0.0  0.0 -0.13979E+00  0.0  0.69179E+00  0.70000E+00
  0.56514E+00  0.24037E+00  0.00000E+00  0.0  0.0  0.0 -0.31393E+00  0.0  0.61708E+00  0.80000E+00
  0.57703E+00  0.24037E+00  0.00000E+00  0.0  0.0  0.0 -0.33262E+00  0.0  0.60889E+00  0.90000E+00
  0.58892E+00  0.24037E+00  0.00000E+00  0.0  0.0  0.0 -0.43736E-01  0.0  0.73218E+00  0.10000E+01
  0.58297E+00  0.24037E+00  0.00000E+00  0.0  0.0  0.0  0.13476E-02  0.0  0.75102E+00  0.95000E+00
  0.57703E+00  0.24037E+00  0.00000E+00  0.0  0.0  0.0  0.92278E-01  0.0  0.78893E+00  0.90000E+00
  0.56514E+00  0.24037E+00  0.00000E+00  0.0  0.0  0.0  0.31262E+00  0.0  0.88104E+00  0.80000E+00
  0.55325E+00  0.24037E+00  0.00000E+00  0.0  0.0  0.0  0.55984E+00  0.0  0.98693E+00  0.70000E+00
  0.54730E+00  0.24037E+00  0.00000E+00  0.0  0.0  0.0  0.65520E+00  0.0  0.10291E+01  0.65000E+00
  0.54135E+00  0.24037E+00  0.00000E+00  0.0  0.0  0.0  0.66474E+00  0.0  0.10334E+01  0.60000E+00
  0.53541E+00  0.24037E+00  0.00000E+00  0.0  0.0  0.0  0.66554E+00  0.0  0.10337E+01  0.55000E+00
  0.52946E+00  0.24037E+00  0.00000E+00  0.0  0.0  0.0  0.62932E+00  0.0  0.10176E+01  0.50000E+00
  0.52352E+00  0.24037E+00  0.00000E+00  0.0  0.0  0.0  0.62997E+00  0.0  0.10178E+01  0.45000E+00
  0.51757E+00  0.24037E+00  0.00000E+00  0.0  0.0  0.0  0.95900E+00  0.0  0.11712E+01  0.40000E+00
  0.51162E+00  0.24037E+00  0.00000E+00  0.0  0.0  0.0  0.12073E+01  0.0  0.13005E+01  0.35000E+00
  0.50568E+00  0.24037E+00  0.00000E+00  0.0  0.0  0.0  0.11669E+01  0.0  0.12784E+01  0.30000E+00
  0.49973E+00  0.24037E+00  0.00000E+00  0.0  0.0  0.0  0.11610E+01  0.0  0.12752E+01  0.25000E+00
  0.49379E+00  0.24037E+00  0.00000E+00  0.0  0.0  0.0  0.11287E+01  0.0  0.12579E+01  0.20000E+00
  0.48784E+00  0.24037E+00  0.00000E+00  0.0  0.0  0.0  0.11050E+01  0.0  0.12454E+01  0.15000E+00
  0.48189E+00  0.24037E+00  0.00000E+00  0.0  0.0  0.0  0.10928E+01  0.0  0.12390E+01  0.10000E+00
  0.47238E+00  0.24037E+00  0.00000E+00  0.0  0.0  0.0  0.29857E+00  0.0  0.87513E+00  0.20000E-01
  0.47119E+00  0.24037E+00  0.00000E+00  0.0  0.0  0.0 -0.16291E+00  0.0  0.68200E+00  0.10000E-01
ZONE T="wing section 6 y/b 0.514", I=   32, J=    1, K=    1, F=POINT
  0.50098E+00  0.30090E+00  0.00000E+00  0.0  0.0  0.0 -0.81462E+00  0.0  0.37104E+00  0.00000E+00
  0.50207E+00  0.30090E+00  0.00000E+00  0.0  0.0  0.0 -0.61564E+00  0.0  0.47782E+00  0.10000E-01
  0.50642E+00  0.30090E+00  0.00000E+00  0.0  0.0  0.0 -0.17994E+00  0.0  0.67477E+00  0.50000E-01
  0.51186E+00  0.30090E+00  0.00000E+00  0.0  0.0  0.0 -0.50566E-01  0.0  0.72932E+00  0.10000E+00
  0.52273E+00  0.30090E+00  0.00000E+00  0.0  0.0  0.0  0.89902E-01  0.0  0.78794E+00  0.20000E+00
  0.53361E+00  0.30090E+00  0.00000E+00  0.0  0.0  0.0  0.20558E+00  0.0  0.83617E+00  0.30000E+00
  0.54448E+00  0.30090E+00  0.00000E+00  0.0  0.0  0.0  0.20582E+00  0.0  0.83627E+00  0.40000E+00
  0.55536E+00  0.30090E+00  0.00000E+00  0.0  0.0  0.0  0.13522E+00  0.0  0.80681E+00  0.50000E+00
  0.56624E+00  0.30090E+00  0.00000E+00  0.0  0.0  0.0  0.22854E-01  0.0  0.76000E+00  0.60000E+00
  0.57711E+00  0.30090E+00  0.00000E+00  0.0  0.0  0.0 -0.12764E+00  0.0  0.69692E+00  0.70000E+00
  0.58799E+00  0.30090E+00  0.00000E+00  0.0  0.0  0.0 -0.27730E+00  0.0  0.63302E+00  0.80000E+00
  0.59886E+00  0.30090E+00  0.00000E+00  0.0  0.0  0.0 -0.29313E+00  0.0  0.62615E+00  0.90000E+00
  0.60430E+00  0.30090E+00  0.00000E+00  0.0  0.0  0.0 -0.24064E+00  0.0  0.64883E+00  0.95000E+00
  0.60974E+00  0.30090E+00  0.00000E+00  0.0  0.0  0.0 -0.57146E-01  0.0  0.72656E+00  0.10000E+01
  0.60430E+00  0.30090E+00  0.00000E+00  0.0  0.0  0.0 -0.16460E-01  0.0  0.74359E+00  0.95000E+00
  0.59886E+00  0.30090E+00  0.00000E+00  0.0  0.0  0.0  0.62683E-01  0.0  0.77660E+00  0.90000E+00
  0.58799E+00  0.30090E+00  0.00000E+00  0.0  0.0  0.0  0.26481E+00  0.0  0.86095E+00  0.80000E+00
  0.57711E+00  0.30090E+00  0.00000E+00  0.0  0.0  0.0  0.48585E+00  0.0  0.95479E+00  0.70000E+00
  0.57167E+00  0.30090E+00  0.00000E+00  0.0  0.0  0.0  0.57944E+00  0.0  0.99552E+00  0.65000E+00
  0.56624E+00  0.30090E+00  0.00000E+00  0.0  0.0  0.0  0.63616E+00  0.0  0.10206E+01  0.60000E+00
  0.56080E+00  0.30090E+00  0.00000E+00  0.0  0.0  0.0  0.63912E+00  0.0  0.10219E+01  0.55000E+00
  0.55536E+00  0.30090E+00  0.00000E+00  0.0  0.0  0.0  0.61680E+00  0.0  0.10120E+01  0.50000E+00
  0.54992E+00  0.30090E+00  0.00000E+00  0.0  0.0  0.0  0.61746E+00  0.0  0.10123E+01  0.45000E+00
  0.54448E+00  0.30090E+00  0.00000E+00  0.0  0.0  0.0  0.10886E+01  0.0  0.12368E+01  0.40000E+00
  0.53905E+00  0.30090E+00  0.00000E+00  0.0  0.0  0.0  0.10862E+01  0.0  0.12356E+01  0.35000E+00
  0.53361E+00  0.30090E+00  0.00000E+00  0.0  0.0  0.0  0.11119E+01  0.0  0.12490E+01  0.30000E+00
  0.52817E+00  0.30090E+00  0.00000E+00  0.0  0.0  0.0  0.11434E+01  0.0  0.12657E+01  0.25000E+00
  0.51186E+00  0.30090E+00  0.00000E+00  0.0  0.0  0.0  0.12472E+01  0.0  0.13228E+01  0.10000E+00
  0.50642E+00  0.30090E+00  0.00000E+00  0.0  0.0  0.0  0.11424E+01  0.0  0.12652E+01  0.50000E-01
  0.50424E+00  0.30090E+00  0.00000E+00  0.0  0.0  0.0  0.77846E+00  0.0  0.10851E+01  0.30000E-01
  0.50315E+00  0.30090E+00  0.00000E+00  0.0  0.0  0.0  0.56397E+00  0.0  0.98873E+00  0.20000E-01
  0.50207E+00  0.30090E+00  0.00000E+00  0.0  0.0  0.0  0.21104E-01  0.0  0.75927E+00  0.10000E-01
ZONE T="wing section 7 y/b 0.638", I=   31, J=    1, K=    1, F=POINT
  0.53797E+00  0.37319E+00  0.00000E+00  0.0  0.0  0.0 -0.73131E+00  0.0  0.41804E+00  0.00000E+00
  0.53894E+00  0.37319E+00  0.00000E+00  0.0  0.0  0.0 -0.68340E+00  0.0  0.44344E+00  0.10000E-01
  0.54087E+00  0.37319E+00  0.00000E+00  0.0  0.0  0.0 -0.37009E+00  0.0  0.59235E+00  0.30000E-01
  0.54280E+00  0.37319E+00  0.00000E+00  0.0  0.0  0.0 -0.25092E+00  0.0  0.64441E+00  0.50000E-01
  0.54763E+00  0.37319E+00  0.00000E+00  0.0  0.0  0.0 -0.80841E-01  0.0  0.71662E+00  0.10000E+00
  0.55730E+00  0.37319E+00  0.00000E+00  0.0  0.0  0.0  0.67667E-01  0.0  0.77868E+00  0.20000E+00
  0.56696E+00  0.37319E+00  0.00000E+00  0.0  0.0  0.0  0.18738E+00  0.0  0.82856E+00  0.30000E+00
  0.57662E+00  0.37319E+00  0.00000E+00  0.0  0.0  0.0  0.19526E+00  0.0  0.83186E+00  0.40000E+00
  0.58629E+00  0.37319E+00  0.00000E+00  0.0  0.0  0.0  0.13714E+00  0.0  0.80762E+00  0.50000E+00
  0.59595E+00  0.37319E+00  0.00000E+00  0.0  0.0  0.0  0.29229E-01  0.0  0.76266E+00  0.60000E+00
  0.60561E+00  0.37319E+00  0.00000E+00  0.0  0.0  0.0 -0.11722E+00  0.0  0.70132E+00  0.70000E+00
  0.62494E+00  0.37319E+00  0.00000E+00  0.0  0.0  0.0 -0.28030E+00  0.0  0.63172E+00  0.90000E+00
  0.62977E+00  0.37319E+00  0.00000E+00  0.0  0.0  0.0 -0.23361E+00  0.0  0.65185E+00  0.95000E+00
  0.63460E+00  0.37319E+00  0.00000E+00  0.0  0.0  0.0 -0.63956E-01  0.0  0.72371E+00  0.10000E+01
  0.62977E+00  0.37319E+00  0.00000E+00  0.0  0.0  0.0 -0.11591E-01  0.0  0.74562E+00  0.95000E+00
  0.62494E+00  0.37319E+00  0.00000E+00  0.0  0.0  0.0  0.60347E-01  0.0  0.77563E+00  0.90000E+00
  0.61528E+00  0.37319E+00  0.00000E+00  0.0  0.0  0.0  0.25375E+00  0.0  0.85632E+00  0.80000E+00
  0.60561E+00  0.37319E+00  0.00000E+00  0.0  0.0  0.0  0.46474E+00  0.0  0.94571E+00  0.70000E+00
  0.59595E+00  0.37319E+00  0.00000E+00  0.0  0.0  0.0  0.56063E+00  0.0  0.98727E+00  0.60000E+00
  0.59112E+00  0.37319E+00  0.00000E+00  0.0  0.0  0.0  0.60380E+00  0.0  0.10062E+01  0.55000E+00
  0.58629E+00  0.37319E+00  0.00000E+00  0.0  0.0  0.0  0.59458E+00  0.0  0.10022E+01  0.50000E+00
  0.58146E+00  0.37319E+00  0.00000E+00  0.0  0.0  0.0  0.58285E+00  0.0  0.99702E+00  0.45000E+00
  0.57662E+00  0.37319E+00  0.00000E+00  0.0  0.0  0.0  0.70550E+00  0.0  0.10517E+01  0.40000E+00
  0.57179E+00  0.37319E+00  0.00000E+00  0.0  0.0  0.0  0.56063E+00  0.0  0.98727E+00  0.35000E+00
  0.56696E+00  0.37319E+00  0.00000E+00  0.0  0.0  0.0  0.12234E+01  0.0  0.13094E+01  0.30000E+00
  0.56213E+00  0.37319E+00  0.00000E+00  0.0  0.0  0.0  0.12669E+01  0.0  0.13340E+01  0.25000E+00
  0.55730E+00  0.37319E+00  0.00000E+00  0.0  0.0  0.0  0.12773E+01  0.0  0.13400E+01  0.20000E+00
  0.55247E+00  0.37319E+00  0.00000E+00  0.0  0.0  0.0  0.12796E+01  0.0  0.13413E+01  0.15000E+00
  0.54280E+00  0.37319E+00  0.00000E+00  0.0  0.0  0.0  0.12095E+01  0.0  0.13017E+01  0.50000E-01
  0.53990E+00  0.37319E+00  0.00000E+00  0.0  0.0  0.0  0.63951E+00  0.0  0.10221E+01  0.20000E-01
  0.53894E+00  0.37319E+00  0.00000E+00  0.0  0.0  0.0  0.16735E+00  0.0  0.82021E+00  0.10000E-01
ZONE T="wing section 8 y/b 0.847", I=   21, J=    1, K=    1, F=POINT
  0.67685E+00  0.49602E+00  0.00000E+00  0.0  0.0  0.0  0.33457E-01  0.0  0.76442E+00  0.10000E+01
  0.67305E+00  0.49602E+00  0.00000E+00  0.0  0.0  0.0 -0.26960E-01  0.0  0.73920E+00  0.95000E+00
  0.66925E+00  0.49602E+00  0.00000E+00  0.0  0.0  0.0  0.48655E-01  0.0  0.77076E+00  0.90000E+00
  0.66164E+00  0.49602E+00  0.00000E+00  0.0  0.0  0.0  0.23385E+00  0.0  0.84798E+00  0.80000E+00
  0.65404E+00  0.49602E+00  0.00000E+00  0.0  0.0  0.0  0.44086E+00  0.0  0.93546E+00  0.70000E+00
  0.65024E+00  0.49602E+00  0.00000E+00  0.0  0.0  0.0  0.51731E+00  0.0  0.96840E+00  0.65000E+00
  0.64644E+00  0.49602E+00  0.00000E+00  0.0  0.0  0.0  0.55286E+00  0.0  0.98388E+00  0.60000E+00
  0.64264E+00  0.49602E+00  0.00000E+00  0.0  0.0  0.0  0.55660E+00  0.0  0.98551E+00  0.55000E+00
  0.63884E+00  0.49602E+00  0.00000E+00  0.0  0.0  0.0  0.54331E+00  0.0  0.97971E+00  0.50000E+00
  0.63504E+00  0.49602E+00  0.00000E+00  0.0  0.0  0.0  0.51939E+00  0.0  0.96930E+00  0.45000E+00
  0.63123E+00  0.49602E+00  0.00000E+00  0.0  0.0  0.0  0.53365E+00  0.0  0.97550E+00  0.40000E+00
  0.62743E+00  0.49602E+00  0.00000E+00  0.0  0.0  0.0  0.89154E+00  0.0  0.11384E+01  0.35000E+00
  0.62363E+00  0.49602E+00  0.00000E+00  0.0  0.0  0.0  0.12221E+01  0.0  0.13087E+01  0.30000E+00
  0.61983E+00  0.49602E+00  0.00000E+00  0.0  0.0  0.0  0.12699E+01  0.0  0.13357E+01  0.25000E+00
  0.61603E+00  0.49602E+00  0.00000E+00  0.0  0.0  0.0  0.12746E+01  0.0  0.13384E+01  0.20000E+00
  0.61223E+00  0.49602E+00  0.00000E+00  0.0  0.0  0.0  0.12826E+01  0.0  0.13430E+01  0.15000E+00
  0.60843E+00  0.49602E+00  0.00000E+00  0.0  0.0  0.0  0.13100E+01  0.0  0.13590E+01  0.10000E+00
  0.60463E+00  0.49602E+00  0.00000E+00  0.0  0.0  0.0  0.11665E+01  0.0  0.12782E+01  0.50000E-01
  0.60235E+00  0.49602E+00  0.00000E+00  0.0  0.0  0.0  0.63329E+00  0.0  0.10193E+01  0.20000E-01
  0.60159E+00  0.49602E+00  0.00000E+00  0.0  0.0  0.0  0.17821E+00  0.0  0.82474E+00  0.10000E-01
  0.60083E+00  0.49602E+00  0.00000E+00  0.0  0.0  0.0 -0.74623E+00  0.0  0.40991E+00  0.00000E+00
ZONE T="nacelle section phi 60 degrees outboard side", I=   15, J=    1, K=    1, F=POINT
  0.36351E+00  0.20805E+00  0.00000E+00  0.0  0.0  0.0 -0.45396E+00  0.0  0.55458E+00  0.13900E+00
  0.35092E+00  0.20805E+00  0.00000E+00  0.0  0.0  0.0 -0.27680E+00  0.0  0.63323E+00  0.69500E-01
  0.34444E+00  0.20805E+00  0.00000E+00  0.0  0.0  0.0  0.65902E-01  0.0  0.77794E+00  0.33700E-01
  0.33995E+00  0.20805E+00  0.00000E+00  0.0  0.0  0.0 -0.52202E+00  0.0  0.52302E+00  0.83000E-02
  0.33833E+00  0.20805E+00  0.00000E+00  0.0  0.0  0.0 -0.99934E+00  0.0  0.24394E+00  0.00000E-03
  0.34138E+00  0.20805E+00  0.00000E+00  0.0  0.0  0.0  0.27580E+00  0.0  0.86556E+00  0.16700E-01
  0.34840E+00  0.20805E+00  0.00000E+00  0.0  0.0  0.0  0.36655E+00  0.0  0.90382E+00  0.55600E-01
  0.35830E+00  0.20805E+00  0.00000E+00  0.0  0.0  0.0  0.41066E+00  0.0  0.92256E+00  0.11120E+00
  0.37341E+00  0.20805E+00  0.00000E+00  0.0  0.0  0.0  0.36931E+00  0.0  0.90499E+00  0.19460E+00
  0.39338E+00  0.20805E+00  0.00000E+00  0.0  0.0  0.0  0.16405E+00  0.0  0.81883E+00  0.30570E+00
  0.41838E+00  0.20805E+00  0.00000E+00  0.0  0.0  0.0  0.15154E+00  0.0  0.81362E+00  0.44470E+00
  0.44339E+00  0.20805E+00  0.00000E+00  0.0  0.0  0.0  0.88182E-01  0.0  0.78722E+00  0.58370E+00
  0.46839E+00  0.20805E+00  0.00000E+00  0.0  0.0  0.0 -0.35041E-01  0.0  0.73582E+00  0.72260E+00
  0.49340E+00  0.20805E+00  0.00000E+00  0.0  0.0  0.0 -0.33022E-01  0.0  0.73666E+00  0.86160E+00
  0.51337E+00  0.20805E+00  0.00000E+00  0.0  0.0  0.0 -0.49267E-01  0.0  0.72986E+00  0.97280E+00
ZONE T="nacelle lower section phi 180 degrees", I=   14, J=    1, K=    1, F=POINT
  0.36351E+00  0.20805E+00  0.00000E+00  0.0  0.0  0.0 -0.42301E+00  0.0  0.56865E+00  0.13900E+00
  0.35092E+00  0.20805E+00  0.00000E+00  0.0  0.0  0.0 -0.21125E+00  0.0  0.66143E+00  0.69500E-01
  0.34444E+00  0.20805E+00  0.00000E+00  0.0  0.0  0.0  0.51336E+00  0.0  0.96669E+00  0.33700E-01
  0.33995E+00  0.20805E+00  0.00000E+00  0.0  0.0  0.0  0.79670E-01  0.0  0.78368E+00  0.83000E-02
  0.33833E+00  0.20805E+00  0.00000E+00  0.0  0.0  0.0 -0.11482E+01  0.0  0.16097E-01  0.00000E-03
  0.34138E+00  0.20805E+00  0.00000E+00  0.0  0.0  0.0 -0.19746E+00  0.0  0.66731E+00  0.16700E-01
  0.34840E+00  0.20805E+00  0.00000E+00  0.0  0.0  0.0  0.53924E-01  0.0  0.77295E+00  0.55600E-01
  0.35830E+00  0.20805E+00  0.00000E+00  0.0  0.0  0.0  0.20835E+00  0.0  0.83732E+00  0.11120E+00
  0.37341E+00  0.20805E+00  0.00000E+00  0.0  0.0  0.0  0.28841E+00  0.0  0.87086E+00  0.19460E+00
  0.39338E+00  0.20805E+00  0.00000E+00  0.0  0.0  0.0  0.12715E+00  0.0  0.80346E+00  0.30570E+00
  0.41838E+00  0.20805E+00  0.00000E+00  0.0  0.0  0.0  0.16192E+00  0.0  0.81794E+00  0.44470E+00
  0.44339E+00  0.20805E+00  0.00000E+00  0.0  0.0  0.0  0.23653E+00  0.0  0.84910E+00  0.58370E+00
  0.46839E+00  0.20805E+00  0.00000E+00  0.0  0.0  0.0  0.80567E-01  0.0  0.78405E+00  0.72260E+00
  0.49340E+00  0.20805E+00  0.00000E+00  0.0  0.0  0.0  0.10511E-01  0.0  0.75485E+00  0.86160E+00
ZONE T="nacelle section phi 300 degrees inboard side", I=   15, J=    1, K=    1, F=POINT
  0.51337E+00  0.20805E+00  0.00000E+00  0.0  0.0  0.0 -0.19949E+00  0.0  0.66645E+00  0.97280E+00
  0.36351E+00  0.20805E+00  0.00000E+00  0.0  0.0  0.0 -0.45176E+00  0.0  0.55559E+00  0.13900E+00
  0.35092E+00  0.20805E+00  0.00000E+00  0.0  0.0  0.0 -0.33215E+00  0.0  0.60910E+00  0.69500E-01
  0.34444E+00  0.20805E+00  0.00000E+00  0.0  0.0  0.0  0.90882E-01  0.0  0.78835E+00  0.33700E-01
  0.33995E+00  0.20805E+00  0.00000E+00  0.0  0.0  0.0 -0.41785E+00  0.0  0.57098E+00  0.83000E-02
  0.33833E+00  0.20805E+00  0.00000E+00  0.0  0.0  0.0 -0.10683E+01  0.0  0.17796E+00  0.00000E-03
  0.34138E+00  0.20805E+00  0.00000E+00  0.0  0.0  0.0  0.18161E+00  0.0  0.82616E+00  0.16700E-01
  0.34840E+00  0.20805E+00  0.00000E+00  0.0  0.0  0.0  0.26989E+00  0.0  0.86308E+00  0.55600E-01
  0.35830E+00  0.20805E+00  0.00000E+00  0.0  0.0  0.0  0.28390E+00  0.0  0.86896E+00  0.11120E+00
  0.37341E+00  0.20805E+00  0.00000E+00  0.0  0.0  0.0  0.22393E+00  0.0  0.84384E+00  0.19460E+00
  0.39338E+00  0.20805E+00  0.00000E+00  0.0  0.0  0.0 -0.20598E-01  0.0  0.74186E+00  0.30570E+00
  0.41838E+00  0.20805E+00  0.00000E+00  0.0  0.0  0.0 -0.61631E-01  0.0  0.72468E+00  0.44470E+00
  0.46839E+00  0.20805E+00  0.00000E+00  0.0  0.0  0.0  0.39671E+00  0.0  0.91662E+00  0.72260E+00
  0.49340E+00  0.20805E+00  0.00000E+00  0.0  0.0  0.0  0.18541E+00  0.0  0.82774E+00  0.86160E+00
  0.51337E+00  0.20805E+00  0.00000E+00  0.0  0.0  0.0  0.30508E-02  0.0  0.75174E+00  0.97280E+00
ZONE T="pylone outboard side", I=    6, J=    1, K=    1, F=POINT
  0.51841E+00  0.20805E+00  0.00000E+00  0.0  0.0  0.0  0.47476E-01  0.0  0.77026E+00  0.72380E+00
  0.46354E+00  0.20805E+00  0.00000E+00  0.0  0.0  0.0 -0.38065E-02  0.0  0.74887E+00  0.50322E+00