TITLE= "F6 tests at ONERA S2MA W.T. August 1990 lot  184 Mach  0.7516 Incidence  0.190 CL 0.4008 - F6 + long nacelles (pos. 1)"
VARIABLES= "X", "Y", "Z", "U", "V", "W", "-Cp", "Pi", "Mach", "X/C"
ZONE T="wing section 1 y/b 0.15", I=   32, J=    1, K=    1, F=POINT
  0.40264E+00  0.10872E+00  0.00000E+00  0.0  0.0  0.0 -0.91702E+00  0.0  0.30673E+00  0.00000E+00
  0.40817E+00  0.10872E+00  0.00000E+00  0.0  0.0  0.0 -0.24849E+00  0.0  0.64644E+00  0.30000E-01
  0.41186E+00  0.10872E+00  0.00000E+00  0.0  0.0  0.0 -0.25896E-01  0.0  0.74079E+00  0.50000E-01
  0.42108E+00  0.10872E+00  0.00000E+00  0.0  0.0  0.0  0.18011E+00  0.0  0.82685E+00  0.10000E+00
  0.43953E+00  0.10872E+00  0.00000E+00  0.0  0.0  0.0  0.29542E+00  0.0  0.87523E+00  0.20000E+00
  0.45798E+00  0.10872E+00  0.00000E+00  0.0  0.0  0.0  0.37257E+00  0.0  0.90787E+00  0.30000E+00
  0.47643E+00  0.10872E+00  0.00000E+00  0.0  0.0  0.0  0.40224E+00  0.0  0.92051E+00  0.40000E+00
  0.51332E+00  0.10872E+00  0.00000E+00  0.0  0.0  0.0  0.23624E+00  0.0  0.85035E+00  0.60000E+00
  0.53177E+00  0.10872E+00  0.00000E+00  0.0  0.0  0.0  0.14200E-01  0.0  0.75756E+00  0.70000E+00
  0.55022E+00  0.10872E+00  0.00000E+00  0.0  0.0  0.0 -0.17130E+00  0.0  0.67948E+00  0.80000E+00
  0.56866E+00  0.10872E+00  0.00000E+00  0.0  0.0  0.0 -0.21716E+00  0.0  0.65990E+00  0.90000E+00
  0.57789E+00  0.10872E+00  0.00000E+00  0.0  0.0  0.0 -0.19789E+00  0.0  0.66815E+00  0.95000E+00
  0.58711E+00  0.10872E+00  0.00000E+00  0.0  0.0  0.0 -0.12896E+00  0.0  0.69743E+00  0.10000E+01
  0.57789E+00  0.10872E+00  0.00000E+00  0.0  0.0  0.0  0.30041E-01  0.0  0.76418E+00  0.95000E+00
  0.56866E+00  0.10872E+00  0.00000E+00  0.0  0.0  0.0  0.13030E+00  0.0  0.80604E+00  0.90000E+00
  0.55022E+00  0.10872E+00  0.00000E+00  0.0  0.0  0.0  0.24542E+00  0.0  0.85420E+00  0.80000E+00
  0.53177E+00  0.10872E+00  0.00000E+00  0.0  0.0  0.0  0.37206E+00  0.0  0.90765E+00  0.70000E+00
  0.52254E+00  0.10872E+00  0.00000E+00  0.0  0.0  0.0  0.44184E+00  0.0  0.93746E+00  0.65000E+00
  0.51332E+00  0.10872E+00  0.00000E+00  0.0  0.0  0.0  0.50462E+00  0.0  0.96455E+00  0.60000E+00
  0.50410E+00  0.10872E+00  0.00000E+00  0.0  0.0  0.0  0.53419E+00  0.0  0.97741E+00  0.55000E+00
  0.49487E+00  0.10872E+00  0.00000E+00  0.0  0.0  0.0  0.59248E+00  0.0  0.10030E+01  0.50000E+00
  0.48565E+00  0.10872E+00  0.00000E+00  0.0  0.0  0.0  0.54794E+00  0.0  0.98342E+00  0.45000E+00
  0.47643E+00  0.10872E+00  0.00000E+00  0.0  0.0  0.0  0.59383E+00  0.0  0.10036E+01  0.40000E+00
  0.46720E+00  0.10872E+00  0.00000E+00  0.0  0.0  0.0  0.66291E+00  0.0  0.10344E+01  0.35000E+00
  0.44876E+00  0.10872E+00  0.00000E+00  0.0  0.0  0.0  0.86997E+00  0.0  0.11302E+01  0.25000E+00
  0.43953E+00  0.10872E+00  0.00000E+00  0.0  0.0  0.0  0.87750E+00  0.0  0.11338E+01  0.20000E+00
  0.43031E+00  0.10872E+00  0.00000E+00  0.0  0.0  0.0  0.81378E+00  0.0  0.11036E+01  0.15000E+00
  0.42108E+00  0.10872E+00  0.00000E+00  0.0  0.0  0.0  0.87306E+00  0.0  0.11317E+01  0.10000E+00
  0.41186E+00  0.10872E+00  0.00000E+00  0.0  0.0  0.0  0.80732E+00  0.0  0.11006E+01  0.50000E-01
  0.40817E+00  0.10872E+00  0.00000E+00  0.0  0.0  0.0  0.56085E+00  0.0  0.98908E+00  0.30000E-01
  0.40633E+00  0.10872E+00  0.00000E+00  0.0  0.0  0.0  0.30689E+00  0.0  0.88006E+00  0.20000E-01
  0.40448E+00  0.10872E+00  0.00000E+00  0.0  0.0  0.0 -0.92252E-01  0.0  0.71292E+00  0.10000E-01
ZONE T="wing section 2 y/b 0.239", I=   33, J=    1, K=    1, F=POINT
  0.41858E+00  0.13987E+00  0.00000E+00  0.0  0.0  0.0 -0.77149E+00  0.0  0.39658E+00  0.00000E+00
  0.42026E+00  0.13987E+00  0.00000E+00  0.0  0.0  0.0 -0.51206E+00  0.0  0.52852E+00  0.10000E-01
  0.42700E+00  0.13987E+00  0.00000E+00  0.0  0.0  0.0  0.60466E-01  0.0  0.77689E+00  0.50000E-01
  0.43543E+00  0.13987E+00  0.00000E+00  0.0  0.0  0.0  0.32282E+00  0.0  0.88679E+00  0.10000E+00
  0.45228E+00  0.13987E+00  0.00000E+00  0.0  0.0  0.0  0.51424E+00  0.0  0.96872E+00  0.20000E+00
  0.46914E+00  0.13987E+00  0.00000E+00  0.0  0.0  0.0  0.64748E+00  0.0  0.10275E+01  0.30000E+00
  0.48599E+00  0.13987E+00  0.00000E+00  0.0  0.0  0.0  0.49099E+00  0.0  0.95864E+00  0.40000E+00
  0.50284E+00  0.13987E+00  0.00000E+00  0.0  0.0  0.0  0.35208E+00  0.0  0.89917E+00  0.50000E+00
  0.51970E+00  0.13987E+00  0.00000E+00  0.0  0.0  0.0  0.15460E+00  0.0  0.81618E+00  0.60000E+00
  0.53655E+00  0.13987E+00  0.00000E+00  0.0  0.0  0.0 -0.52154E-01  0.0  0.72978E+00  0.70000E+00
  0.55340E+00  0.13987E+00  0.00000E+00  0.0  0.0  0.0 -0.23600E+00  0.0  0.65182E+00  0.80000E+00
  0.57026E+00  0.13987E+00  0.00000E+00  0.0  0.0  0.0 -0.27560E+00  0.0  0.63472E+00  0.90000E+00
  0.57868E+00  0.13987E+00  0.00000E+00  0.0  0.0  0.0 -0.25374E+00  0.0  0.64418E+00  0.95000E+00
  0.58711E+00  0.13987E+00  0.00000E+00  0.0  0.0  0.0 -0.12896E+00  0.0  0.69743E+00  0.10000E+01
  0.57868E+00  0.13987E+00  0.00000E+00  0.0  0.0  0.0 -0.47145E-01  0.0  0.73188E+00  0.95000E+00
  0.57026E+00  0.13987E+00  0.00000E+00  0.0  0.0  0.0  0.78965E-01  0.0  0.78461E+00  0.90000E+00
  0.55340E+00  0.13987E+00  0.00000E+00  0.0  0.0  0.0  0.26888E+00  0.0  0.86405E+00  0.80000E+00
  0.53655E+00  0.13987E+00  0.00000E+00  0.0  0.0  0.0  0.40708E+00  0.0  0.92257E+00  0.70000E+00
  0.52812E+00  0.13987E+00  0.00000E+00  0.0  0.0  0.0  0.47535E+00  0.0  0.95188E+00  0.65000E+00
  0.51970E+00  0.13987E+00  0.00000E+00  0.0  0.0  0.0  0.52541E+00  0.0  0.97359E+00  0.60000E+00
  0.51127E+00  0.13987E+00  0.00000E+00  0.0  0.0  0.0  0.54836E+00  0.0  0.98361E+00  0.55000E+00
  0.50284E+00  0.13987E+00  0.00000E+00  0.0  0.0  0.0  0.56022E+00  0.0  0.98880E+00  0.50000E+00
  0.49442E+00  0.13987E+00  0.00000E+00  0.0  0.0  0.0  0.57899E+00  0.0  0.99706E+00  0.45000E+00
  0.48599E+00  0.13987E+00  0.00000E+00  0.0  0.0  0.0  0.58788E+00  0.0  0.10010E+01  0.40000E+00
  0.47756E+00  0.13987E+00  0.00000E+00  0.0  0.0  0.0  0.57764E+00  0.0  0.99646E+00  0.35000E+00
  0.46914E+00  0.13987E+00  0.00000E+00  0.0  0.0  0.0  0.56677E+00  0.0  0.99168E+00  0.30000E+00
  0.46071E+00  0.13987E+00  0.00000E+00  0.0  0.0  0.0  0.97487E+00  0.0  0.11814E+01  0.25000E+00
  0.45228E+00  0.13987E+00  0.00000E+00  0.0  0.0  0.0  0.97489E+00  0.0  0.11814E+01  0.20000E+00
  0.44386E+00  0.13987E+00  0.00000E+00  0.0  0.0  0.0  0.13058E+01  0.0  0.13596E+01  0.15000E+00
  0.43543E+00  0.13987E+00  0.00000E+00  0.0  0.0  0.0  0.13122E+01  0.0  0.13634E+01  0.10000E+00
  0.42700E+00  0.13987E+00  0.00000E+00  0.0  0.0  0.0  0.11730E+01  0.0  0.12845E+01  0.50000E-01
  0.42363E+00  0.13987E+00  0.00000E+00  0.0  0.0  0.0  0.75351E+00  0.0  0.10756E+01  0.30000E-01
  0.42195E+00  0.13987E+00  0.00000E+00  0.0  0.0  0.0  0.52034E+00  0.0  0.97138E+00  0.20000E-01
ZONE T="wing section 3 y/b 0.331", I=   33, J=    1, K=    1, F=POINT
  0.44655E+00  0.19453E+00  0.00000E+00  0.0  0.0  0.0 -0.70455E+00  0.0  0.43308E+00  0.00000E+00
  0.44795E+00  0.19453E+00  0.00000E+00  0.0  0.0  0.0 -0.54225E+00  0.0  0.51425E+00  0.10000E-01
  0.45076E+00  0.19453E+00  0.00000E+00  0.0  0.0  0.0 -0.19351E+00  0.0  0.67002E+00  0.30000E-01
  0.45357E+00  0.19453E+00  0.00000E+00  0.0  0.0  0.0  0.11677E+00  0.0  0.80039E+00  0.50000E-01
  0.47466E+00  0.19453E+00  0.00000E+00  0.0  0.0  0.0  0.12854E+01  0.0  0.13477E+01  0.20000E+00
  0.48871E+00  0.19453E+00  0.00000E+00  0.0  0.0  0.0  0.57713E+00  0.0  0.99623E+00  0.30000E+00
  0.50277E+00  0.19453E+00  0.00000E+00  0.0  0.0  0.0  0.28529E+00  0.0  0.87096E+00  0.40000E+00
  0.51683E+00  0.19453E+00  0.00000E+00  0.0  0.0  0.0  0.12100E+00  0.0  0.80215E+00  0.50000E+00
  0.53088E+00  0.19453E+00  0.00000E+00  0.0  0.0  0.0 -0.11428E-01  0.0  0.74684E+00  0.60000E+00
  0.54494E+00  0.19453E+00  0.00000E+00  0.0  0.0  0.0 -0.12190E+00  0.0  0.70042E+00  0.70000E+00
  0.55900E+00  0.19453E+00  0.00000E+00  0.0  0.0  0.0 -0.21932E+00  0.0  0.65898E+00  0.80000E+00
  0.57305E+00  0.19453E+00  0.00000E+00  0.0  0.0  0.0 -0.25407E+00  0.0  0.64403E+00  0.90000E+00
  0.58008E+00  0.19453E+00  0.00000E+00  0.0  0.0  0.0 -0.23946E+00  0.0  0.65033E+00  0.95000E+00
  0.58711E+00  0.19453E+00  0.00000E+00  0.0  0.0  0.0 -0.12131E+00  0.0  0.70067E+00  0.10000E+01
  0.58008E+00  0.19453E+00  0.00000E+00  0.0  0.0  0.0 -0.54727E-01  0.0  0.72870E+00  0.95000E+00
  0.57305E+00  0.19453E+00  0.00000E+00  0.0  0.0  0.0  0.45826E-01  0.0  0.77078E+00  0.90000E+00
  0.55900E+00  0.19453E+00  0.00000E+00  0.0  0.0  0.0  0.27109E+00  0.0  0.86498E+00  0.80000E+00
  0.54494E+00  0.19453E+00  0.00000E+00  0.0  0.0  0.0  0.47405E+00  0.0  0.95132E+00  0.70000E+00
  0.53791E+00  0.19453E+00  0.00000E+00  0.0  0.0  0.0  0.56174E+00  0.0  0.98947E+00  0.65000E+00
  0.53088E+00  0.19453E+00  0.00000E+00  0.0  0.0  0.0  0.61367E+00  0.0  0.10124E+01  0.60000E+00
  0.52386E+00  0.19453E+00  0.00000E+00  0.0  0.0  0.0  0.61104E+00  0.0  0.10112E+01  0.55000E+00
  0.51683E+00  0.19453E+00  0.00000E+00  0.0  0.0  0.0  0.63231E+00  0.0  0.10207E+01  0.50000E+00
  0.50980E+00  0.19453E+00  0.00000E+00  0.0  0.0  0.0  0.64892E+00  0.0  0.10281E+01  0.45000E+00
  0.50277E+00  0.19453E+00  0.00000E+00  0.0  0.0  0.0  0.64828E+00  0.0  0.10278E+01  0.40000E+00
  0.49574E+00  0.19453E+00  0.00000E+00  0.0  0.0  0.0  0.62510E+00  0.0  0.10175E+01  0.35000E+00
  0.48871E+00  0.19453E+00  0.00000E+00  0.0  0.0  0.0  0.55662E+00  0.0  0.98723E+00  0.30000E+00
  0.48169E+00  0.19453E+00  0.00000E+00  0.0  0.0  0.0  0.49658E+00  0.0  0.96106E+00  0.25000E+00
  0.47466E+00  0.19453E+00  0.00000E+00  0.0  0.0  0.0  0.11388E+01  0.0  0.12660E+01  0.20000E+00
  0.46763E+00  0.19453E+00  0.00000E+00  0.0  0.0  0.0  0.12344E+01  0.0  0.13185E+01  0.15000E+00
  0.46060E+00  0.19453E+00  0.00000E+00  0.0  0.0  0.0  0.13178E+01  0.0  0.13668E+01  0.10000E+00
  0.45357E+00  0.19453E+00  0.00000E+00  0.0  0.0  0.0  0.11597E+01  0.0  0.12772E+01  0.50000E-01
  0.44936E+00  0.19453E+00  0.00000E+00  0.0  0.0  0.0  0.59078E+00  0.0  0.10023E+01  0.20000E-01
  0.44795E+00  0.19453E+00  0.00000E+00  0.0  0.0  0.0  0.27140E+00  0.0  0.86511E+00  0.10000E-01
ZONE T="wing section 4 y/b 0.377", I=   32, J=    1, K=    1, F=POINT
  0.46038E+00  0.22156E+00  0.00000E+00  0.0  0.0  0.0 -0.83643E+00  0.0  0.35867E+00  0.00000E+00
  0.46165E+00  0.22156E+00  0.00000E+00  0.0  0.0  0.0 -0.46259E-01  0.0  0.73225E+00  0.10000E-01
  0.46418E+00  0.22156E+00  0.00000E+00  0.0  0.0  0.0  0.25961E+00  0.0  0.86016E+00  0.30000E-01
  0.46672E+00  0.22156E+00  0.00000E+00  0.0  0.0  0.0  0.31352E+00  0.0  0.88286E+00  0.50000E-01
  0.47305E+00  0.22156E+00  0.00000E+00  0.0  0.0  0.0  0.28693E+00  0.0  0.87165E+00  0.10000E+00
  0.48573E+00  0.22156E+00  0.00000E+00  0.0  0.0  0.0  0.30816E+00  0.0  0.88060E+00  0.20000E+00
  0.49840E+00  0.22156E+00  0.00000E+00  0.0  0.0  0.0  0.36379E+00  0.0  0.90414E+00  0.30000E+00
  0.51107E+00  0.22156E+00  0.00000E+00  0.0  0.0  0.0  0.31051E+00  0.0  0.88159E+00  0.40000E+00
  0.52374E+00  0.22156E+00  0.00000E+00  0.0  0.0  0.0  0.17161E+00  0.0  0.82329E+00  0.50000E+00
  0.53642E+00  0.22156E+00  0.00000E+00  0.0  0.0  0.0  0.35068E-01  0.0  0.76628E+00  0.60000E+00
  0.54909E+00  0.22156E+00  0.00000E+00  0.0  0.0  0.0 -0.10208E+00  0.0  0.70878E+00  0.70000E+00
  0.56176E+00  0.22156E+00  0.00000E+00  0.0  0.0  0.0 -0.26375E+00  0.0  0.63985E+00  0.80000E+00
  0.57444E+00  0.22156E+00  0.00000E+00  0.0  0.0  0.0 -0.30509E+00  0.0  0.62189E+00  0.90000E+00
  0.58077E+00  0.22156E+00  0.00000E+00  0.0  0.0  0.0 -0.27004E+00  0.0  0.63713E+00  0.95000E+00
  0.58711E+00  0.22156E+00  0.00000E+00  0.0  0.0  0.0 -0.87787E-01  0.0  0.71480E+00  0.10000E+01
  0.57444E+00  0.22156E+00  0.00000E+00  0.0  0.0  0.0  0.63174E-01  0.0  0.77802E+00  0.90000E+00
  0.56176E+00  0.22156E+00  0.00000E+00  0.0  0.0  0.0  0.30884E+00  0.0  0.88088E+00  0.80000E+00
  0.54909E+00  0.22156E+00  0.00000E+00  0.0  0.0  0.0  0.54131E+00  0.0  0.98052E+00  0.70000E+00
  0.54275E+00  0.22156E+00  0.00000E+00  0.0  0.0  0.0  0.63255E+00  0.0  0.10208E+01  0.65000E+00
  0.53642E+00  0.22156E+00  0.00000E+00  0.0  0.0  0.0  0.67602E+00  0.0  0.10403E+01  0.60000E+00
  0.53008E+00  0.22156E+00  0.00000E+00  0.0  0.0  0.0  0.66737E+00  0.0  0.10364E+01  0.55000E+00
  0.52374E+00  0.22156E+00  0.00000E+00  0.0  0.0  0.0  0.66807E+00  0.0  0.10367E+01  0.50000E+00
  0.51741E+00  0.22156E+00  0.00000E+00  0.0  0.0  0.0  0.68865E+00  0.0  0.10460E+01  0.45000E+00
  0.51107E+00  0.22156E+00  0.00000E+00  0.0  0.0  0.0  0.69522E+00  0.0  0.10490E+01  0.40000E+00
  0.50474E+00  0.22156E+00  0.00000E+00  0.0  0.0  0.0  0.69480E+00  0.0  0.10488E+01  0.35000E+00
  0.49840E+00  0.22156E+00  0.00000E+00  0.0  0.0  0.0  0.62978E+00  0.0  0.10196E+01  0.30000E+00
  0.49206E+00  0.22156E+00  0.00000E+00  0.0  0.0  0.0  0.55854E+00  0.0  0.98807E+00  0.25000E+00
  0.48573E+00  0.22156E+00  0.00000E+00  0.0  0.0  0.0  0.86490E+00  0.0  0.11278E+01  0.20000E+00
  0.47939E+00  0.22156E+00  0.00000E+00  0.0  0.0  0.0  0.93311E+00  0.0  0.11608E+01  0.15000E+00
  0.47305E+00  0.22156E+00  0.00000E+00  0.0  0.0  0.0  0.96245E+00  0.0  0.11752E+01  0.10000E+00
  0.46672E+00  0.22156E+00  0.00000E+00  0.0  0.0  0.0  0.73497E+00  0.0  0.10671E+01  0.50000E-01
  0.46291E+00  0.22156E+00  0.00000E+00  0.0  0.0  0.0  0.13961E+00  0.0  0.80992E+00  0.20000E-01
ZONE T="wing section 5 y/b 0.411", I=   32, J=    1, K=    1, F=POINT
  0.47000E+00  0.24037E+00  0.00000E+00  0.0  0.0  0.0 -0.87316E+00  0.0  0.33579E+00  0.00000E+00
  0.47119E+00  0.24037E+00  0.00000E+00  0.0  0.0  0.0 -0.11172E+00  0.0  0.70472E+00  0.10000E-01
  0.47357E+00  0.24037E+00  0.00000E+00  0.0  0.0  0.0  0.16667E+00  0.0  0.82123E+00  0.30000E-01
  0.47595E+00  0.24037E+00  0.00000E+00  0.0  0.0  0.0  0.21290E+00  0.0  0.84056E+00  0.50000E-01
  0.48189E+00  0.24037E+00  0.00000E+00  0.0  0.0  0.0  0.24092E+00  0.0  0.85231E+00  0.10000E+00
  0.49379E+00  0.24037E+00  0.00000E+00  0.0  0.0  0.0  0.29970E+00  0.0  0.87703E+00  0.20000E+00
  0.50568E+00  0.24037E+00  0.00000E+00  0.0  0.0  0.0  0.34854E+00  0.0  0.89767E+00  0.30000E+00
  0.51757E+00  0.24037E+00  0.00000E+00  0.0  0.0  0.0  0.27707E+00  0.0  0.86750E+00  0.40000E+00
  0.52946E+00  0.24037E+00  0.00000E+00  0.0  0.0  0.0  0.18626E+00  0.0  0.82942E+00  0.50000E+00
  0.54135E+00  0.24037E+00  0.00000E+00  0.0  0.0  0.0  0.66196E-01  0.0  0.77928E+00  0.60000E+00
  0.55325E+00  0.24037E+00  0.00000E+00  0.0  0.0  0.0 -0.10582E+00  0.0  0.70721E+00  0.70000E+00
  0.56514E+00  0.24037E+00  0.00000E+00  0.0  0.0  0.0 -0.28274E+00  0.0  0.63162E+00  0.80000E+00
  0.57703E+00  0.24037E+00  0.00000E+00  0.0  0.0  0.0 -0.31016E+00  0.0  0.61967E+00  0.90000E+00
  0.58892E+00  0.24037E+00  0.00000E+00  0.0  0.0  0.0 -0.42411E-01  0.0  0.73386E+00  0.10000E+01
  0.58297E+00  0.24037E+00  0.00000E+00  0.0  0.0  0.0 -0.13618E-03  0.0  0.75157E+00  0.95000E+00
  0.57703E+00  0.24037E+00  0.00000E+00  0.0  0.0  0.0  0.89909E-01  0.0  0.78918E+00  0.90000E+00
  0.56514E+00  0.24037E+00  0.00000E+00  0.0  0.0  0.0  0.31422E+00  0.0  0.88315E+00  0.80000E+00
  0.55325E+00  0.24037E+00  0.00000E+00  0.0  0.0  0.0  0.56731E+00  0.0  0.99192E+00  0.70000E+00
  0.54730E+00  0.24037E+00  0.00000E+00  0.0  0.0  0.0  0.67083E+00  0.0  0.10379E+01  0.65000E+00
  0.54135E+00  0.24037E+00  0.00000E+00  0.0  0.0  0.0  0.68445E+00  0.0  0.10441E+01  0.60000E+00
  0.53541E+00  0.24037E+00  0.00000E+00  0.0  0.0  0.0  0.69761E+00  0.0  0.10500E+01  0.55000E+00
  0.52946E+00  0.24037E+00  0.00000E+00  0.0  0.0  0.0  0.68578E+00  0.0  0.10447E+01  0.50000E+00
  0.52352E+00  0.24037E+00  0.00000E+00  0.0  0.0  0.0  0.69076E+00  0.0  0.10469E+01  0.45000E+00
  0.51757E+00  0.24037E+00  0.00000E+00  0.0  0.0  0.0  0.70761E+00  0.0  0.10546E+01  0.40000E+00
  0.51162E+00  0.24037E+00  0.00000E+00  0.0  0.0  0.0  0.69081E+00  0.0  0.10470E+01  0.35000E+00
  0.50568E+00  0.24037E+00  0.00000E+00  0.0  0.0  0.0  0.68720E+00  0.0  0.10453E+01  0.30000E+00
  0.49973E+00  0.24037E+00  0.00000E+00  0.0  0.0  0.0  0.64687E+00  0.0  0.10272E+01  0.25000E+00
  0.49379E+00  0.24037E+00  0.00000E+00  0.0  0.0  0.0  0.72284E+00  0.0  0.10615E+01  0.20000E+00
  0.48784E+00  0.24037E+00  0.00000E+00  0.0  0.0  0.0  0.78143E+00  0.0  0.10885E+01  0.15000E+00
  0.48189E+00  0.24037E+00  0.00000E+00  0.0  0.0  0.0  0.86034E+00  0.0  0.11256E+01  0.10000E+00
  0.47238E+00  0.24037E+00  0.00000E+00  0.0  0.0  0.0  0.10222E+00  0.0  0.79431E+00  0.20000E-01
  0.47119E+00  0.24037E+00  0.00000E+00  0.0  0.0  0.0 -0.32860E+00  0.0  0.61159E+00  0.10000E-01
ZONE T="wing section 6 y/b 0.514", I=   32, J=    1, K=    1, F=POINT
  0.50098E+00  0.30090E+00  0.00000E+00  0.0  0.0  0.0 -0.88572E+00  0.0  0.32768E+00  0.00000E+00
  0.50207E+00  0.30090E+00  0.00000E+00  0.0  0.0  0.0 -0.39614E+00  0.0  0.58162E+00  0.10000E-01
  0.50642E+00  0.30090E+00  0.00000E+00  0.0  0.0  0.0  0.38544E-01  0.0  0.76773E+00  0.50000E-01
  0.51186E+00  0.30090E+00  0.00000E+00  0.0  0.0  0.0  0.12017E+00  0.0  0.80181E+00  0.10000E+00
  0.52273E+00  0.30090E+00  0.00000E+00  0.0  0.0  0.0  0.22010E+00  0.0  0.84358E+00  0.20000E+00
  0.53361E+00  0.30090E+00  0.00000E+00  0.0  0.0  0.0  0.31966E+00  0.0  0.88545E+00  0.30000E+00
  0.54448E+00  0.30090E+00  0.00000E+00  0.0  0.0  0.0  0.28578E+00  0.0  0.87116E+00  0.40000E+00
  0.55536E+00  0.30090E+00  0.00000E+00  0.0  0.0  0.0  0.19815E+00  0.0  0.83439E+00  0.50000E+00
  0.56624E+00  0.30090E+00  0.00000E+00  0.0  0.0  0.0  0.69136E-01  0.0  0.78051E+00  0.60000E+00
  0.57711E+00  0.30090E+00  0.00000E+00  0.0  0.0  0.0 -0.97972E-01  0.0  0.71051E+00  0.70000E+00
  0.58799E+00  0.30090E+00  0.00000E+00  0.0  0.0  0.0 -0.24996E+00  0.0  0.64581E+00  0.80000E+00
  0.59886E+00  0.30090E+00  0.00000E+00  0.0  0.0  0.0 -0.27536E+00  0.0  0.63482E+00  0.90000E+00
  0.60430E+00  0.30090E+00  0.00000E+00  0.0  0.0  0.0 -0.22997E+00  0.0  0.65441E+00  0.95000E+00
  0.60974E+00  0.30090E+00  0.00000E+00  0.0  0.0  0.0 -0.61626E-01  0.0  0.72580E+00  0.10000E+01
  0.60430E+00  0.30090E+00  0.00000E+00  0.0  0.0  0.0 -0.17561E-01  0.0  0.74428E+00  0.95000E+00
  0.59886E+00  0.30090E+00  0.00000E+00  0.0  0.0  0.0  0.65789E-01  0.0  0.77911E+00  0.90000E+00
  0.58799E+00  0.30090E+00  0.00000E+00  0.0  0.0  0.0  0.27329E+00  0.0  0.86591E+00  0.80000E+00
  0.57711E+00  0.30090E+00  0.00000E+00  0.0  0.0  0.0  0.49561E+00  0.0  0.96064E+00  0.70000E+00
  0.57167E+00  0.30090E+00  0.00000E+00  0.0  0.0  0.0  0.59182E+00  0.0  0.10027E+01  0.65000E+00
  0.56624E+00  0.30090E+00  0.00000E+00  0.0  0.0  0.0  0.65368E+00  0.0  0.10302E+01  0.60000E+00
  0.56080E+00  0.30090E+00  0.00000E+00  0.0  0.0  0.0  0.67080E+00  0.0  0.10379E+01  0.55000E+00
  0.55536E+00  0.30090E+00  0.00000E+00  0.0  0.0  0.0  0.68067E+00  0.0  0.10424E+01  0.50000E+00
  0.54992E+00  0.30090E+00  0.00000E+00  0.0  0.0  0.0  0.68686E+00  0.0  0.10452E+01  0.45000E+00
  0.54448E+00  0.30090E+00  0.00000E+00  0.0  0.0  0.0  0.68599E+00  0.0  0.10448E+01  0.40000E+00
  0.53905E+00  0.30090E+00  0.00000E+00  0.0  0.0  0.0  0.68742E+00  0.0  0.10454E+01  0.35000E+00
  0.53361E+00  0.30090E+00  0.00000E+00  0.0  0.0  0.0  0.68608E+00  0.0  0.10448E+01  0.30000E+00
  0.52817E+00  0.30090E+00  0.00000E+00  0.0  0.0  0.0  0.72200E+00  0.0  0.10611E+01  0.25000E+00
  0.51186E+00  0.30090E+00  0.00000E+00  0.0  0.0  0.0  0.79464E+00  0.0  0.10946E+01  0.10000E+00
  0.50642E+00  0.30090E+00  0.00000E+00  0.0  0.0  0.0  0.75053E+00  0.0  0.10742E+01  0.50000E-01
  0.50424E+00  0.30090E+00  0.00000E+00  0.0  0.0  0.0  0.47737E+00  0.0  0.95275E+00  0.30000E-01
  0.50315E+00  0.30090E+00  0.00000E+00  0.0  0.0  0.0  0.25606E+00  0.0  0.85866E+00  0.20000E-01
  0.50207E+00  0.30090E+00  0.00000E+00  0.0  0.0  0.0 -0.24776E+00  0.0  0.64675E+00  0.10000E-01
ZONE T="wing section 7 y/b 0.638", I=   31, J=    1, K=    1, F=POINT
  0.53797E+00  0.37319E+00  0.00000E+00  0.0  0.0  0.0 -0.85532E+00  0.0  0.34705E+00  0.00000E+00
  0.53894E+00  0.37319E+00  0.00000E+00  0.0  0.0  0.0 -0.49184E+00  0.0  0.53796E+00  0.10000E-01
  0.54087E+00  0.37319E+00  0.00000E+00  0.0  0.0  0.0 -0.14577E+00  0.0  0.69032E+00  0.30000E-01
  0.54280E+00  0.37319E+00  0.00000E+00  0.0  0.0  0.0 -0.49040E-01  0.0  0.73108E+00  0.50000E-01
  0.54763E+00  0.37319E+00  0.00000E+00  0.0  0.0  0.0  0.92634E-01  0.0  0.79031E+00  0.10000E+00
  0.55730E+00  0.37319E+00  0.00000E+00  0.0  0.0  0.0  0.20666E+00  0.0  0.83795E+00  0.20000E+00
  0.56696E+00  0.37319E+00  0.00000E+00  0.0  0.0  0.0  0.31362E+00  0.0  0.88290E+00  0.30000E+00
  0.57662E+00  0.37319E+00  0.00000E+00  0.0  0.0  0.0  0.29215E+00  0.0  0.87385E+00  0.40000E+00
  0.58629E+00  0.37319E+00  0.00000E+00  0.0  0.0  0.0  0.20688E+00  0.0  0.83804E+00  0.50000E+00
  0.59595E+00  0.37319E+00  0.00000E+00  0.0  0.0  0.0  0.74772E-01  0.0  0.78286E+00  0.60000E+00
  0.60561E+00  0.37319E+00  0.00000E+00  0.0  0.0  0.0 -0.89450E-01  0.0  0.71410E+00  0.70000E+00
  0.62494E+00  0.37319E+00  0.00000E+00  0.0  0.0  0.0 -0.26345E+00  0.0  0.63998E+00  0.90000E+00
  0.62977E+00  0.37319E+00  0.00000E+00  0.0  0.0  0.0 -0.22115E+00  0.0  0.65819E+00  0.95000E+00
  0.63460E+00  0.37319E+00  0.00000E+00  0.0  0.0  0.0 -0.66347E-01  0.0  0.72382E+00  0.10000E+01
  0.62977E+00  0.37319E+00  0.00000E+00  0.0  0.0  0.0 -0.11361E-01  0.0  0.74687E+00  0.95000E+00
  0.62494E+00  0.37319E+00  0.00000E+00  0.0  0.0  0.0  0.65986E-01  0.0  0.77919E+00  0.90000E+00
  0.61528E+00  0.37319E+00  0.00000E+00  0.0  0.0  0.0  0.26531E+00  0.0  0.86255E+00  0.80000E+00
  0.60561E+00  0.37319E+00  0.00000E+00  0.0  0.0  0.0  0.48086E+00  0.0  0.95426E+00  0.70000E+00
  0.59595E+00  0.37319E+00  0.00000E+00  0.0  0.0  0.0  0.58337E+00  0.0  0.99899E+00  0.60000E+00
  0.59112E+00  0.37319E+00  0.00000E+00  0.0  0.0  0.0  0.63952E+00  0.0  0.10239E+01  0.55000E+00
  0.58629E+00  0.37319E+00  0.00000E+00  0.0  0.0  0.0  0.65281E+00  0.0  0.10298E+01  0.50000E+00
  0.58146E+00  0.37319E+00  0.00000E+00  0.0  0.0  0.0  0.65213E+00  0.0  0.10295E+01  0.45000E+00
  0.57662E+00  0.37319E+00  0.00000E+00  0.0  0.0  0.0  0.66795E+00  0.0  0.10366E+01  0.40000E+00
  0.57179E+00  0.37319E+00  0.00000E+00  0.0  0.0  0.0  0.58337E+00  0.0  0.99899E+00  0.35000E+00
  0.56696E+00  0.37319E+00  0.00000E+00  0.0  0.0  0.0  0.69120E+00  0.0  0.10471E+01  0.30000E+00
  0.56213E+00  0.37319E+00  0.00000E+00  0.0  0.0  0.0  0.70397E+00  0.0  0.10529E+01  0.25000E+00
  0.55730E+00  0.37319E+00  0.00000E+00  0.0  0.0  0.0  0.72891E+00  0.0  0.10643E+01  0.20000E+00
  0.55247E+00  0.37319E+00  0.00000E+00  0.0  0.0  0.0  0.77245E+00  0.0  0.10843E+01  0.15000E+00
  0.54280E+00  0.37319E+00  0.00000E+00  0.0  0.0  0.0  0.81218E+00  0.0  0.11029E+01  0.50000E-01
  0.53990E+00  0.37319E+00  0.00000E+00  0.0  0.0  0.0  0.30753E+00  0.0  0.88033E+00  0.20000E-01
  0.53894E+00  0.37319E+00  0.00000E+00  0.0  0.0  0.0 -0.12828E+00  0.0  0.69772E+00  0.10000E-01
ZONE T="wing section 8 y/b 0.847", I=   21, J=    1, K=    1, F=POINT
  0.67685E+00  0.49602E+00  0.00000E+00  0.0  0.0  0.0  0.34286E-01  0.0  0.76596E+00  0.10000E+01
  0.67305E+00  0.49602E+00  0.00000E+00  0.0  0.0  0.0 -0.30605E-01  0.0  0.73881E+00  0.95000E+00
  0.66925E+00  0.49602E+00  0.00000E+00  0.0  0.0  0.0  0.44776E-01  0.0  0.77034E+00  0.90000E+00
  0.66164E+00  0.49602E+00  0.00000E+00  0.0  0.0  0.0  0.23754E+00  0.0  0.85089E+00  0.80000E+00
  0.65404E+00  0.49602E+00  0.00000E+00  0.0  0.0  0.0  0.45160E+00  0.0  0.94164E+00  0.70000E+00
  0.65024E+00  0.49602E+00  0.00000E+00  0.0  0.0  0.0  0.53390E+00  0.0  0.97729E+00  0.65000E+00
  0.64644E+00  0.49602E+00  0.00000E+00  0.0  0.0  0.0  0.57557E+00  0.0  0.99555E+00  0.60000E+00
  0.64264E+00  0.49602E+00  0.00000E+00  0.0  0.0  0.0  0.58947E+00  0.0  0.10017E+01  0.55000E+00
  0.63884E+00  0.49602E+00  0.00000E+00  0.0  0.0  0.0  0.59729E+00  0.0  0.10051E+01  0.50000E+00
  0.63504E+00  0.49602E+00  0.00000E+00  0.0  0.0  0.0  0.60467E+00  0.0  0.10084E+01  0.45000E+00
  0.63123E+00  0.49602E+00  0.00000E+00  0.0  0.0  0.0  0.61806E+00  0.0  0.10143E+01  0.40000E+00
  0.62743E+00  0.49602E+00  0.00000E+00  0.0  0.0  0.0  0.62058E+00  0.0  0.10155E+01  0.35000E+00
  0.62363E+00  0.49602E+00  0.00000E+00  0.0  0.0  0.0  0.63650E+00  0.0  0.10226E+01  0.30000E+00
  0.61983E+00  0.49602E+00  0.00000E+00  0.0  0.0  0.0  0.67128E+00  0.0  0.10381E+01  0.25000E+00
  0.61603E+00  0.49602E+00  0.00000E+00  0.0  0.0  0.0  0.71283E+00  0.0  0.10570E+01  0.20000E+00
  0.61223E+00  0.49602E+00  0.00000E+00  0.0  0.0  0.0  0.78477E+00  0.0  0.10901E+01  0.15000E+00
  0.60843E+00  0.49602E+00  0.00000E+00  0.0  0.0  0.0  0.93160E+00  0.0  0.11600E+01  0.10000E+00
  0.60463E+00  0.49602E+00  0.00000E+00  0.0  0.0  0.0  0.79235E+00  0.0  0.10936E+01  0.50000E-01
  0.60235E+00  0.49602E+00  0.00000E+00  0.0  0.0  0.0  0.30056E+00  0.0  0.87739E+00  0.20000E-01
  0.60159E+00  0.49602E+00  0.00000E+00  0.0  0.0  0.0 -0.14917E+00  0.0  0.68888E+00  0.10000E-01
  0.60083E+00  0.49602E+00  0.00000E+00  0.0  0.0  0.0 -0.86515E+00  0.0  0.34088E+00  0.00000E+00
ZONE T="nacelle section phi 60 degrees outboard side", I=   15, J=    1, K=    1, F=POINT
  0.36351E+00  0.20805E+00  0.00000E+00  0.0  0.0  0.0 -0.42466E+00  0.0  0.56878E+00  0.13900E+00
  0.35092E+00  0.20805E+00  0.00000E+00  0.0  0.0  0.0 -0.22691E+00  0.0  0.65572E+00  0.69500E-01
  0.34444E+00  0.20805E+00  0.00000E+00  0.0  0.0  0.0  0.19046E+00  0.0  0.83117E+00  0.33700E-01
  0.33995E+00  0.20805E+00  0.00000E+00  0.0  0.0  0.0 -0.39542E+00  0.0  0.58195E+00  0.83000E-02
  0.33833E+00  0.20805E+00  0.00000E+00  0.0  0.0  0.0 -0.10565E+01  0.0  0.19144E+00  0.00000E-00
  0.34138E+00  0.20805E+00  0.00000E+00  0.0  0.0  0.0  0.18172E+00  0.0  0.82752E+00  0.16700E-01
  0.34840E+00  0.20805E+00  0.00000E+00  0.0  0.0  0.0  0.31631E+00  0.0  0.88404E+00  0.55600E-01
  0.35830E+00  0.20805E+00  0.00000E+00  0.0  0.0  0.0  0.39544E+00  0.0  0.91760E+00  0.11120E+00
  0.37341E+00  0.20805E+00  0.00000E+00  0.0  0.0  0.0  0.36151E+00  0.0  0.90317E+00  0.19460E+00
  0.39338E+00  0.20805E+00  0.00000E+00  0.0  0.0  0.0  0.15928E+00  0.0  0.81814E+00  0.30570E+00
  0.41838E+00  0.20805E+00  0.00000E+00  0.0  0.0  0.0  0.16031E+00  0.0  0.81857E+00  0.44470E+00
  0.44339E+00  0.20805E+00  0.00000E+00  0.0  0.0  0.0  0.12804E+00  0.0  0.80509E+00  0.58370E+00
  0.46839E+00  0.20805E+00  0.00000E+00  0.0  0.0  0.0  0.33657E-01  0.0  0.76569E+00  0.72260E+00
  0.49340E+00  0.20805E+00  0.00000E+00  0.0  0.0  0.0  0.43604E-01  0.0  0.76985E+00  0.86160E+00
  0.51337E+00  0.20805E+00  0.00000E+00  0.0  0.0  0.0  0.22864E-01  0.0  0.76118E+00  0.97280E+00
ZONE T="nacelle lower section phi 180 degrees", I=   14, J=    1, K=    1, F=POINT
  0.36351E+00  0.20805E+00  0.00000E+00  0.0  0.0  0.0 -0.40671E+00  0.0  0.57688E+00  0.13900E+00
  0.35092E+00  0.20805E+00  0.00000E+00  0.0  0.0  0.0 -0.20996E+00  0.0  0.66299E+00  0.69500E-01
  0.34444E+00  0.20805E+00  0.00000E+00  0.0  0.0  0.0  0.43939E+00  0.0  0.93640E+00  0.33700E-01
  0.33995E+00  0.20805E+00  0.00000E+00  0.0  0.0  0.0 -0.70585E-01  0.0  0.72204E+00  0.83000E-02
  0.33833E+00  0.20805E+00  0.00000E+00  0.0  0.0  0.0 -0.11405E+01  0.0  0.58593E-01  0.00000E-00
  0.34138E+00  0.20805E+00  0.00000E+00  0.0  0.0  0.0 -0.70810E-01  0.0  0.72194E+00  0.16700E-01
  0.34840E+00  0.20805E+00  0.00000E+00  0.0  0.0  0.0  0.14640E+00  0.0  0.81276E+00  0.55600E-01
  0.35830E+00  0.20805E+00  0.00000E+00  0.0  0.0  0.0  0.27940E+00  0.0  0.86848E+00  0.11120E+00
  0.37341E+00  0.20805E+00  0.00000E+00  0.0  0.0  0.0  0.33584E+00  0.0  0.89229E+00  0.19460E+00
  0.39338E+00  0.20805E+00  0.00000E+00  0.0  0.0  0.0  0.16197E+00  0.0  0.81926E+00  0.30570E+00
  0.41838E+00  0.20805E+00  0.00000E+00  0.0  0.0  0.0  0.20306E+00  0.0  0.83645E+00  0.44470E+00
  0.44339E+00  0.20805E+00  0.00000E+00  0.0  0.0  0.0  0.27615E+00  0.0  0.86711E+00  0.58370E+00
  0.46839E+00  0.20805E+00  0.00000E+00  0.0  0.0  0.0  0.11761E+00  0.0  0.80074E+00  0.72260E+00
  0.49340E+00  0.20805E+00  0.00000E+00  0.0  0.0  0.0  0.45000E-01  0.0  0.77043E+00  0.86160E+00
ZONE T="nacelle section phi 300 degrees inboard side", I=   15, J=    1, K=    1, F=POINT
  0.51337E+00  0.20805E+00  0.00000E+00  0.0  0.0  0.0 -0.16157E+00  0.0  0.68361E+00  0.97280E+00
  0.36351E+00  0.20805E+00  0.00000E+00  0.0  0.0  0.0 -0.42456E+00  0.0  0.56882E+00  0.13900E+00
  0.35092E+00  0.20805E+00  0.00000E+00  0.0  0.0  0.0 -0.28722E+00  0.0  0.62967E+00  0.69500E-01
  0.34444E+00  0.20805E+00  0.00000E+00  0.0  0.0  0.0  0.19818E+00  0.0  0.83440E+00  0.33700E-01
  0.33995E+00  0.20805E+00  0.00000E+00  0.0  0.0  0.0 -0.30847E+00  0.0  0.62041E+00  0.83000E-02
  0.33833E+00  0.20805E+00  0.00000E+00  0.0  0.0  0.0 -0.11033E+01  0.0  0.13420E+00  0.00000E-00
  0.34138E+00  0.20805E+00  0.00000E+00  0.0  0.0  0.0  0.11787E+00  0.0  0.80085E+00  0.16700E-01
  0.34840E+00  0.20805E+00  0.00000E+00  0.0  0.0  0.0  0.23721E+00  0.0  0.85075E+00  0.55600E-01
  0.35830E+00  0.20805E+00  0.00000E+00  0.0  0.0  0.0  0.27463E+00  0.0  0.86647E+00  0.11120E+00
  0.37341E+00  0.20805E+00  0.00000E+00  0.0  0.0  0.0  0.23043E+00  0.0  0.84791E+00  0.19460E+00
  0.39338E+00  0.20805E+00  0.00000E+00  0.0  0.0  0.0 -0.65832E-02  0.0  0.74887E+00  0.30570E+00
  0.41838E+00  0.20805E+00  0.00000E+00  0.0  0.0  0.0 -0.90013E-02  0.0  0.74786E+00  0.44470E+00
  0.46839E+00  0.20805E+00  0.00000E+00  0.0  0.0  0.0  0.60854E+00  0.0  0.10101E+01  0.72260E+00
  0.49340E+00  0.20805E+00  0.00000E+00  0.0  0.0  0.0  0.22832E+00  0.0  0.84703E+00  0.86160E+00
  0.51337E+00  0.20805E+00  0.00000E+00  0.0  0.0  0.0  0.36815E-01  0.0  0.76701E+00  0.97280E+00
ZONE T="pylone outboard side", I=    6, J=    1, K=    1, F=POINT
  0.51841E+00  0.20805E+00  0.00000E+00  0.0  0.0  0.0  0.11163E+00  0.0  0.79824E+00  1.00100E+00
  0.46354E+00  0.20805E+00  0.00000E+00  0.0  0.0  0.0  0.11504E+00  0.0  0.79967E+00  0.69540E+00