TITLE= "F6 tests at ONERA S2MA W.T. August 1990 lot  270 Mach  0.7533 Incidence -0.304 CL 0.4012 - F6 WB"
VARIABLES= "X", "Y", "Z", "U", "V", "W", "-Cp", "Pi", "Mach", "X/C"
ZONE T="wing section 1 y/b 0.15", I=   32, J=    1, K=    1, F=POINT
  0.40264E+00  0.08785E+00  0.00000E+00  0.0  0.0  0.0 -0.93556E+00  0.0  0.29469E+00  0.00000E+00
  0.40817E+00  0.08785E+00  0.00000E+00  0.0  0.0  0.0 -0.26404E+00  0.0  0.64115E+00  0.30000E-01
  0.41186E+00  0.08785E+00  0.00000E+00  0.0  0.0  0.0 -0.57699E-01  0.0  0.72909E+00  0.50000E-01
  0.42108E+00  0.08785E+00  0.00000E+00  0.0  0.0  0.0  0.11812E+00  0.0  0.80280E+00  0.10000E+00
  0.43953E+00  0.08785E+00  0.00000E+00  0.0  0.0  0.0  0.21404E+00  0.0  0.84301E+00  0.20000E+00
  0.45798E+00  0.08785E+00  0.00000E+00  0.0  0.0  0.0  0.25690E+00  0.0  0.86105E+00  0.30000E+00
  0.47643E+00  0.08785E+00  0.00000E+00  0.0  0.0  0.0  0.30086E+00  0.0  0.87961E+00  0.40000E+00
  0.51332E+00  0.08785E+00  0.00000E+00  0.0  0.0  0.0  0.22629E+00  0.0  0.84816E+00  0.60000E+00
  0.53177E+00  0.08785E+00  0.00000E+00  0.0  0.0  0.0  0.13621E-01  0.0  0.75904E+00  0.70000E+00
  0.55022E+00  0.08785E+00  0.00000E+00  0.0  0.0  0.0 -0.16841E+00  0.0  0.68224E+00  0.80000E+00
  0.56866E+00  0.08785E+00  0.00000E+00  0.0  0.0  0.0 -0.20997E+00  0.0  0.66447E+00  0.90000E+00
  0.57789E+00  0.08785E+00  0.00000E+00  0.0  0.0  0.0 -0.19084E+00  0.0  0.67266E+00  0.95000E+00
  0.58711E+00  0.08785E+00  0.00000E+00  0.0  0.0  0.0 -0.11344E+00  0.0  0.70557E+00  0.10000E+01
  0.57789E+00  0.08785E+00  0.00000E+00  0.0  0.0  0.0  0.30524E-01  0.0  0.76613E+00  0.95000E+00
  0.56866E+00  0.08785E+00  0.00000E+00  0.0  0.0  0.0  0.14118E+00  0.0  0.81246E+00  0.90000E+00
  0.55022E+00  0.08785E+00  0.00000E+00  0.0  0.0  0.0  0.27253E+00  0.0  0.86764E+00  0.80000E+00
  0.53177E+00  0.08785E+00  0.00000E+00  0.0  0.0  0.0  0.40326E+00  0.0  0.92319E+00  0.70000E+00
  0.52254E+00  0.08785E+00  0.00000E+00  0.0  0.0  0.0  0.46991E+00  0.0  0.95188E+00  0.65000E+00
  0.51332E+00  0.08785E+00  0.00000E+00  0.0  0.0  0.0  0.52553E+00  0.0  0.97609E+00  0.60000E+00
  0.50410E+00  0.08785E+00  0.00000E+00  0.0  0.0  0.0  0.54787E+00  0.0  0.98588E+00  0.55000E+00
  0.49487E+00  0.08785E+00  0.00000E+00  0.0  0.0  0.0  0.61750E+00  0.0  0.10167E+01  0.50000E+00
  0.48565E+00  0.08785E+00  0.00000E+00  0.0  0.0  0.0  0.53850E+00  0.0  0.98177E+00  0.45000E+00
  0.47643E+00  0.08785E+00  0.00000E+00  0.0  0.0  0.0  0.57947E+00  0.0  0.99981E+00  0.40000E+00
  0.46720E+00  0.08785E+00  0.00000E+00  0.0  0.0  0.0  0.62045E+00  0.0  0.10180E+01  0.35000E+00
  0.44876E+00  0.08785E+00  0.00000E+00  0.0  0.0  0.0  0.73554E+00  0.0  0.10702E+01  0.25000E+00
  0.43953E+00  0.08785E+00  0.00000E+00  0.0  0.0  0.0  0.77207E+00  0.0  0.10871E+01  0.20000E+00
  0.43031E+00  0.08785E+00  0.00000E+00  0.0  0.0  0.0  0.70769E+00  0.0  0.10574E+01  0.15000E+00
  0.42108E+00  0.08785E+00  0.00000E+00  0.0  0.0  0.0  0.76407E+00  0.0  0.10834E+01  0.10000E+00
  0.41186E+00  0.08785E+00  0.00000E+00  0.0  0.0  0.0  0.74401E+00  0.0  0.10741E+01  0.50000E-01
  0.40817E+00  0.08785E+00  0.00000E+00  0.0  0.0  0.0  0.47845E+00  0.0  0.95559E+00  0.30000E-01
  0.40633E+00  0.08785E+00  0.00000E+00  0.0  0.0  0.0  0.23257E+00  0.0  0.85081E+00  0.20000E-01
  0.40448E+00  0.08785E+00  0.00000E+00  0.0  0.0  0.0 -0.15754E+00  0.0  0.68686E+00  0.10000E-01
ZONE T="wing section 2 y/b 0.239", I=   33, J=    1, K=    1, F=POINT
  0.41858E+00  0.13987E+00  0.00000E+00  0.0  0.0  0.0 -0.80162E+00  0.0  0.38035E+00  0.00000E+00
  0.42026E+00  0.13987E+00  0.00000E+00  0.0  0.0  0.0 -0.54146E+00  0.0  0.51582E+00  0.10000E-01
  0.42700E+00  0.13987E+00  0.00000E+00  0.0  0.0  0.0 -0.23370E-01  0.0  0.74353E+00  0.50000E-01
  0.43543E+00  0.13987E+00  0.00000E+00  0.0  0.0  0.0  0.17671E+00  0.0  0.82735E+00  0.10000E+00
  0.45228E+00  0.13987E+00  0.00000E+00  0.0  0.0  0.0  0.27573E+00  0.0  0.86899E+00  0.20000E+00
  0.46914E+00  0.13987E+00  0.00000E+00  0.0  0.0  0.0  0.34498E+00  0.0  0.89832E+00  0.30000E+00
  0.48599E+00  0.13987E+00  0.00000E+00  0.0  0.0  0.0  0.38053E+00  0.0  0.91346E+00  0.40000E+00
  0.50284E+00  0.13987E+00  0.00000E+00  0.0  0.0  0.0  0.37789E+00  0.0  0.91234E+00  0.50000E+00
  0.51970E+00  0.13987E+00  0.00000E+00  0.0  0.0  0.0  0.21423E+00  0.0  0.84310E+00  0.60000E+00
  0.53655E+00  0.13987E+00  0.00000E+00  0.0  0.0  0.0 -0.83973E-02  0.0  0.74981E+00  0.70000E+00
  0.55340E+00  0.13987E+00  0.00000E+00  0.0  0.0  0.0 -0.21560E+00  0.0  0.66205E+00  0.80000E+00
  0.57026E+00  0.13987E+00  0.00000E+00  0.0  0.0  0.0 -0.25705E+00  0.0  0.64418E+00  0.90000E+00
  0.57868E+00  0.13987E+00  0.00000E+00  0.0  0.0  0.0 -0.23643E+00  0.0  0.65309E+00  0.95000E+00
  0.58711E+00  0.13987E+00  0.00000E+00  0.0  0.0  0.0 -0.11344E+00  0.0  0.70557E+00  0.10000E+01
  0.57868E+00  0.13987E+00  0.00000E+00  0.0  0.0  0.0 -0.30996E-01  0.0  0.74032E+00  0.95000E+00
  0.57026E+00  0.13987E+00  0.00000E+00  0.0  0.0  0.0  0.97853E-01  0.0  0.79432E+00  0.90000E+00
  0.55340E+00  0.13987E+00  0.00000E+00  0.0  0.0  0.0  0.29173E+00  0.0  0.87575E+00  0.80000E+00
  0.53655E+00  0.13987E+00  0.00000E+00  0.0  0.0  0.0  0.43053E+00  0.0  0.93489E+00  0.70000E+00
  0.52812E+00  0.13987E+00  0.00000E+00  0.0  0.0  0.0  0.49786E+00  0.0  0.96402E+00  0.65000E+00
  0.51970E+00  0.13987E+00  0.00000E+00  0.0  0.0  0.0  0.54740E+00  0.0  0.98568E+00  0.60000E+00
  0.51127E+00  0.13987E+00  0.00000E+00  0.0  0.0  0.0  0.56650E+00  0.0  0.99408E+00  0.55000E+00
  0.50284E+00  0.13987E+00  0.00000E+00  0.0  0.0  0.0  0.57732E+00  0.0  0.99886E+00  0.50000E+00
  0.49442E+00  0.13987E+00  0.00000E+00  0.0  0.0  0.0  0.60044E+00  0.0  0.10091E+01  0.45000E+00
  0.48599E+00  0.13987E+00  0.00000E+00  0.0  0.0  0.0  0.61847E+00  0.0  0.10171E+01  0.40000E+00
  0.47756E+00  0.13987E+00  0.00000E+00  0.0  0.0  0.0  0.62835E+00  0.0  0.10216E+01  0.35000E+00
  0.46914E+00  0.13987E+00  0.00000E+00  0.0  0.0  0.0  0.62752E+00  0.0  0.10212E+01  0.30000E+00
  0.46071E+00  0.13987E+00  0.00000E+00  0.0  0.0  0.0  0.67150E+00  0.0  0.10410E+01  0.25000E+00
  0.45228E+00  0.13987E+00  0.00000E+00  0.0  0.0  0.0  0.83365E+00  0.0  0.11160E+01  0.20000E+00
  0.44386E+00  0.13987E+00  0.00000E+00  0.0  0.0  0.0  0.10828E+01  0.0  0.12401E+01  0.15000E+00
  0.43543E+00  0.13987E+00  0.00000E+00  0.0  0.0  0.0  0.11418E+01  0.0  0.12716E+01  0.10000E+00
  0.42700E+00  0.13987E+00  0.00000E+00  0.0  0.0  0.0  0.10744E+01  0.0  0.12358E+01  0.50000E-01
  0.42363E+00  0.13987E+00  0.00000E+00  0.0  0.0  0.0  0.65851E+00  0.0  0.10351E+01  0.30000E-01
  0.42195E+00  0.13987E+00  0.00000E+00  0.0  0.0  0.0  0.43386E+00  0.0  0.93633E+00  0.20000E-01
ZONE T="wing section 3 y/b 0.331", I=   33, J=    1, K=    1, F=POINT
  0.44655E+00  0.19453E+00  0.00000E+00  0.0  0.0  0.0 -0.76567E+00  0.0  0.40088E+00  0.00000E+00
  0.44795E+00  0.19453E+00  0.00000E+00  0.0  0.0  0.0 -0.46799E+00  0.0  0.55025E+00  0.10000E-01
  0.45076E+00  0.19453E+00  0.00000E+00  0.0  0.0  0.0 -0.16561E+00  0.0  0.68343E+00  0.30000E-01
  0.45357E+00  0.19453E+00  0.00000E+00  0.0  0.0  0.0  0.46390E-02  0.0  0.75528E+00  0.50000E-01
  0.47466E+00  0.19453E+00  0.00000E+00  0.0  0.0  0.0  0.29424E+00  0.0  0.87681E+00  0.20000E+00
  0.48871E+00  0.19453E+00  0.00000E+00  0.0  0.0  0.0  0.38802E+00  0.0  0.91667E+00  0.30000E+00
  0.50277E+00  0.19453E+00  0.00000E+00  0.0  0.0  0.0  0.39560E+00  0.0  0.91991E+00  0.40000E+00
  0.51683E+00  0.19453E+00  0.00000E+00  0.0  0.0  0.0  0.33772E+00  0.0  0.89523E+00  0.50000E+00
  0.53088E+00  0.19453E+00  0.00000E+00  0.0  0.0  0.0  0.17415E+00  0.0  0.82627E+00  0.60000E+00
  0.54494E+00  0.19453E+00  0.00000E+00  0.0  0.0  0.0 -0.44761E-01  0.0  0.73454E+00  0.70000E+00
  0.55900E+00  0.19453E+00  0.00000E+00  0.0  0.0  0.0 -0.23788E+00  0.0  0.65246E+00  0.80000E+00
  0.57305E+00  0.19453E+00  0.00000E+00  0.0  0.0  0.0 -0.26673E+00  0.0  0.63999E+00  0.90000E+00
  0.58008E+00  0.19453E+00  0.00000E+00  0.0  0.0  0.0 -0.23676E+00  0.0  0.65295E+00  0.95000E+00
  0.58711E+00  0.19453E+00  0.00000E+00  0.0  0.0  0.0 -0.96745E-01  0.0  0.71263E+00  0.10000E+01
  0.58008E+00  0.19453E+00  0.00000E+00  0.0  0.0  0.0 -0.16763E-01  0.0  0.74630E+00  0.95000E+00
  0.57305E+00  0.19453E+00  0.00000E+00  0.0  0.0  0.0  0.91239E-01  0.0  0.79155E+00  0.90000E+00
  0.55900E+00  0.19453E+00  0.00000E+00  0.0  0.0  0.0  0.30710E+00  0.0  0.88225E+00  0.80000E+00
  0.54494E+00  0.19453E+00  0.00000E+00  0.0  0.0  0.0  0.50818E+00  0.0  0.96851E+00  0.70000E+00
  0.53791E+00  0.19453E+00  0.00000E+00  0.0  0.0  0.0  0.60044E+00  0.0  0.10091E+01  0.65000E+00
  0.53088E+00  0.19453E+00  0.00000E+00  0.0  0.0  0.0  0.64861E+00  0.0  0.10306E+01  0.60000E+00
  0.52386E+00  0.19453E+00  0.00000E+00  0.0  0.0  0.0  0.62995E+00  0.0  0.10223E+01  0.55000E+00
  0.51683E+00  0.19453E+00  0.00000E+00  0.0  0.0  0.0  0.64493E+00  0.0  0.10290E+01  0.50000E+00
  0.50980E+00  0.19453E+00  0.00000E+00  0.0  0.0  0.0  0.66297E+00  0.0  0.10371E+01  0.45000E+00
  0.50277E+00  0.19453E+00  0.00000E+00  0.0  0.0  0.0  0.66852E+00  0.0  0.10396E+01  0.40000E+00
  0.49574E+00  0.19453E+00  0.00000E+00  0.0  0.0  0.0  0.66280E+00  0.0  0.10370E+01  0.35000E+00
  0.48871E+00  0.19453E+00  0.00000E+00  0.0  0.0  0.0  0.61571E+00  0.0  0.10159E+01  0.30000E+00
  0.48169E+00  0.19453E+00  0.00000E+00  0.0  0.0  0.0  0.56453E+00  0.0  0.99321E+00  0.25000E+00
  0.47466E+00  0.19453E+00  0.00000E+00  0.0  0.0  0.0  0.10266E+01  0.0  0.12110E+01  0.20000E+00
  0.46763E+00  0.19453E+00  0.00000E+00  0.0  0.0  0.0  0.11453E+01  0.0  0.12735E+01  0.15000E+00
  0.46060E+00  0.19453E+00  0.00000E+00  0.0  0.0  0.0  0.12010E+01  0.0  0.13041E+01  0.10000E+00
  0.45357E+00  0.19453E+00  0.00000E+00  0.0  0.0  0.0  0.95572E+00  0.0  0.11753E+01  0.50000E-01
  0.44936E+00  0.19453E+00  0.00000E+00  0.0  0.0  0.0  0.37756E+00  0.0  0.91220E+00  0.20000E-01
  0.44795E+00  0.19453E+00  0.00000E+00  0.0  0.0  0.0  0.75414E-01  0.0  0.78492E+00  0.10000E-01
ZONE T="wing section 4 y/b 0.377", I=   32, J=    1, K=    1, F=POINT
  0.46038E+00  0.22156E+00  0.00000E+00  0.0  0.0  0.0 -0.82374E+00  0.0  0.36730E+00  0.00000E+00
  0.46165E+00  0.22156E+00  0.00000E+00  0.0  0.0  0.0 -0.43170E+00  0.0  0.56686E+00  0.10000E-01
  0.46418E+00  0.22156E+00  0.00000E+00  0.0  0.0  0.0 -0.10880E+00  0.0  0.70754E+00  0.30000E-01
  0.46672E+00  0.22156E+00  0.00000E+00  0.0  0.0  0.0  0.23580E-01  0.0  0.76322E+00  0.50000E-01
  0.47305E+00  0.22156E+00  0.00000E+00  0.0  0.0  0.0  0.12312E+00  0.0  0.80489E+00  0.10000E+00
  0.48573E+00  0.22156E+00  0.00000E+00  0.0  0.0  0.0  0.27922E+00  0.0  0.87046E+00  0.20000E+00
  0.49840E+00  0.22156E+00  0.00000E+00  0.0  0.0  0.0  0.39560E+00  0.0  0.91991E+00  0.30000E+00
  0.51107E+00  0.22156E+00  0.00000E+00  0.0  0.0  0.0  0.40198E+00  0.0  0.92264E+00  0.40000E+00
  0.52374E+00  0.22156E+00  0.00000E+00  0.0  0.0  0.0  0.31713E+00  0.0  0.88650E+00  0.50000E+00
  0.53642E+00  0.22156E+00  0.00000E+00  0.0  0.0  0.0  0.15654E+00  0.0  0.81889E+00  0.60000E+00
  0.54909E+00  0.22156E+00  0.00000E+00  0.0  0.0  0.0 -0.41783E-01  0.0  0.73579E+00  0.70000E+00
  0.56176E+00  0.22156E+00  0.00000E+00  0.0  0.0  0.0 -0.24489E+00  0.0  0.64944E+00  0.80000E+00
  0.57444E+00  0.22156E+00  0.00000E+00  0.0  0.0  0.0 -0.27962E+00  0.0  0.63439E+00  0.90000E+00
  0.58077E+00  0.22156E+00  0.00000E+00  0.0  0.0  0.0 -0.23602E+00  0.0  0.65327E+00  0.95000E+00
  0.58711E+00  0.22156E+00  0.00000E+00  0.0  0.0  0.0 -0.64636E-01  0.0  0.72617E+00  0.10000E+01
  0.57444E+00  0.22156E+00  0.00000E+00  0.0  0.0  0.0  0.10406E+00  0.0  0.79692E+00  0.90000E+00
  0.56176E+00  0.22156E+00  0.00000E+00  0.0  0.0  0.0  0.34593E+00  0.0  0.89872E+00  0.80000E+00
  0.54909E+00  0.22156E+00  0.00000E+00  0.0  0.0  0.0  0.56980E+00  0.0  0.99554E+00  0.70000E+00
  0.54275E+00  0.22156E+00  0.00000E+00  0.0  0.0  0.0  0.68390E+00  0.0  0.10466E+01  0.65000E+00
  0.53642E+00  0.22156E+00  0.00000E+00  0.0  0.0  0.0  0.70852E+00  0.0  0.10578E+01  0.60000E+00
  0.53008E+00  0.22156E+00  0.00000E+00  0.0  0.0  0.0  0.68409E+00  0.0  0.10467E+01  0.55000E+00
  0.52374E+00  0.22156E+00  0.00000E+00  0.0  0.0  0.0  0.68335E+00  0.0  0.10463E+01  0.50000E+00
  0.51741E+00  0.22156E+00  0.00000E+00  0.0  0.0  0.0  0.69386E+00  0.0  0.10511E+01  0.45000E+00
  0.51107E+00  0.22156E+00  0.00000E+00  0.0  0.0  0.0  0.70823E+00  0.0  0.10577E+01  0.40000E+00
  0.50474E+00  0.22156E+00  0.00000E+00  0.0  0.0  0.0  0.70586E+00  0.0  0.10566E+01  0.35000E+00
  0.49840E+00  0.22156E+00  0.00000E+00  0.0  0.0  0.0  0.63519E+00  0.0  0.10246E+01  0.30000E+00
  0.49206E+00  0.22156E+00  0.00000E+00  0.0  0.0  0.0  0.59086E+00  0.0  0.10049E+01  0.25000E+00
  0.48573E+00  0.22156E+00  0.00000E+00  0.0  0.0  0.0  0.88819E+00  0.0  0.11422E+01  0.20000E+00
  0.47939E+00  0.22156E+00  0.00000E+00  0.0  0.0  0.0  0.10211E+01  0.0  0.12082E+01  0.15000E+00
  0.47305E+00  0.22156E+00  0.00000E+00  0.0  0.0  0.0  0.10708E+01  0.0  0.12339E+01  0.10000E+00
  0.46672E+00  0.22156E+00  0.00000E+00  0.0  0.0  0.0  0.90384E+00  0.0  0.11498E+01  0.50000E-01
  0.46291E+00  0.22156E+00  0.00000E+00  0.0  0.0  0.0  0.39180E+00  0.0  0.91828E+00  0.20000E-01
ZONE T="wing section 5 y/b 0.411", I=   32, J=    1, K=    1, F=POINT
  0.47000E+00  0.24037E+00  0.00000E+00  0.0  0.0  0.0 -0.82161E+00  0.0  0.36858E+00  0.00000E+00
  0.47119E+00  0.24037E+00  0.00000E+00  0.0  0.0  0.0 -0.37335E+00  0.0  0.59313E+00  0.10000E-01
  0.47357E+00  0.24037E+00  0.00000E+00  0.0  0.0  0.0 -0.86012E-01  0.0  0.71716E+00  0.30000E-01
  0.47595E+00  0.24037E+00  0.00000E+00  0.0  0.0  0.0 -0.95257E-03  0.0  0.75293E+00  0.50000E-01
  0.48189E+00  0.24037E+00  0.00000E+00  0.0  0.0  0.0  0.10874E+00  0.0  0.79888E+00  0.10000E+00
  0.49379E+00  0.24037E+00  0.00000E+00  0.0  0.0  0.0  0.26160E+00  0.0  0.86303E+00  0.20000E+00
  0.50568E+00  0.24037E+00  0.00000E+00  0.0  0.0  0.0  0.38390E+00  0.0  0.91491E+00  0.30000E+00
  0.51757E+00  0.24037E+00  0.00000E+00  0.0  0.0  0.0  0.38465E+00  0.0  0.91522E+00  0.40000E+00
  0.52946E+00  0.24037E+00  0.00000E+00  0.0  0.0  0.0  0.30201E+00  0.0  0.88010E+00  0.50000E+00
  0.54135E+00  0.24037E+00  0.00000E+00  0.0  0.0  0.0  0.14925E+00  0.0  0.81584E+00  0.60000E+00
  0.55325E+00  0.24037E+00  0.00000E+00  0.0  0.0  0.0 -0.56427E-01  0.0  0.72963E+00  0.70000E+00
  0.56514E+00  0.24037E+00  0.00000E+00  0.0  0.0  0.0 -0.24043E+00  0.0  0.65137E+00  0.80000E+00
  0.57703E+00  0.24037E+00  0.00000E+00  0.0  0.0  0.0 -0.27484E+00  0.0  0.63647E+00  0.90000E+00
  0.58892E+00  0.24037E+00  0.00000E+00  0.0  0.0  0.0 -0.30783E-01  0.0  0.74041E+00  0.10000E+01
  0.58297E+00  0.24037E+00  0.00000E+00  0.0  0.0  0.0  0.23630E-01  0.0  0.76324E+00  0.95000E+00
  0.57703E+00  0.24037E+00  0.00000E+00  0.0  0.0  0.0  0.12219E+00  0.0  0.80451E+00  0.90000E+00
  0.56514E+00  0.24037E+00  0.00000E+00  0.0  0.0  0.0  0.35121E+00  0.0  0.90097E+00  0.80000E+00
  0.55325E+00  0.24037E+00  0.00000E+00  0.0  0.0  0.0  0.59686E+00  0.0  0.10075E+01  0.70000E+00
  0.54730E+00  0.24037E+00  0.00000E+00  0.0  0.0  0.0  0.72293E+00  0.0  0.10644E+01  0.65000E+00
  0.54135E+00  0.24037E+00  0.00000E+00  0.0  0.0  0.0  0.71011E+00  0.0  0.10585E+01  0.60000E+00
  0.53541E+00  0.24037E+00  0.00000E+00  0.0  0.0  0.0  0.71614E+00  0.0  0.10613E+01  0.55000E+00
  0.52946E+00  0.24037E+00  0.00000E+00  0.0  0.0  0.0  0.68670E+00  0.0  0.10479E+01  0.50000E+00
  0.52352E+00  0.24037E+00  0.00000E+00  0.0  0.0  0.0  0.69718E+00  0.0  0.10526E+01  0.45000E+00
  0.51757E+00  0.24037E+00  0.00000E+00  0.0  0.0  0.0  0.70597E+00  0.0  0.10566E+01  0.40000E+00
  0.51162E+00  0.24037E+00  0.00000E+00  0.0  0.0  0.0  0.72291E+00  0.0  0.10644E+01  0.35000E+00
  0.50568E+00  0.24037E+00  0.00000E+00  0.0  0.0  0.0  0.69411E+00  0.0  0.10512E+01  0.30000E+00
  0.49973E+00  0.24037E+00  0.00000E+00  0.0  0.0  0.0  0.63265E+00  0.0  0.10235E+01  0.25000E+00
  0.49379E+00  0.24037E+00  0.00000E+00  0.0  0.0  0.0  0.71276E+00  0.0  0.10597E+01  0.20000E+00
  0.48784E+00  0.24037E+00  0.00000E+00  0.0  0.0  0.0  0.88269E+00  0.0  0.11395E+01  0.15000E+00
  0.48189E+00  0.24037E+00  0.00000E+00  0.0  0.0  0.0  0.99210E+00  0.0  0.11935E+01  0.10000E+00
  0.47238E+00  0.24037E+00  0.00000E+00  0.0  0.0  0.0  0.32231E+00  0.0  0.88869E+00  0.20000E-01
  0.47119E+00  0.24037E+00  0.00000E+00  0.0  0.0  0.0 -0.12005E+00  0.0  0.70277E+00  0.10000E-01
ZONE T="wing section 6 y/b 0.514", I=   32, J=    1, K=    1, F=POINT
  0.50098E+00  0.30090E+00  0.00000E+00  0.0  0.0  0.0 -0.85948E+00  0.0  0.34543E+00  0.00000E+00
  0.50207E+00  0.30090E+00  0.00000E+00  0.0  0.0  0.0 -0.41956E+00  0.0  0.57237E+00  0.10000E-01
  0.50642E+00  0.30090E+00  0.00000E+00  0.0  0.0  0.0  0.20011E-01  0.0  0.76172E+00  0.50000E-01
  0.51186E+00  0.30090E+00  0.00000E+00  0.0  0.0  0.0  0.11571E+00  0.0  0.80179E+00  0.10000E+00
  0.52273E+00  0.30090E+00  0.00000E+00  0.0  0.0  0.0  0.23888E+00  0.0  0.85346E+00  0.20000E+00
  0.53361E+00  0.30090E+00  0.00000E+00  0.0  0.0  0.0  0.35274E+00  0.0  0.90162E+00  0.30000E+00
  0.54448E+00  0.30090E+00  0.00000E+00  0.0  0.0  0.0  0.32359E+00  0.0  0.88924E+00  0.40000E+00
  0.55536E+00  0.30090E+00  0.00000E+00  0.0  0.0  0.0  0.23014E+00  0.0  0.84978E+00  0.50000E+00
  0.56624E+00  0.30090E+00  0.00000E+00  0.0  0.0  0.0  0.93071E-01  0.0  0.79231E+00  0.60000E+00
  0.57711E+00  0.30090E+00  0.00000E+00  0.0  0.0  0.0 -0.78356E-01  0.0  0.72039E+00  0.70000E+00
  0.58799E+00  0.30090E+00  0.00000E+00  0.0  0.0  0.0 -0.23347E+00  0.0  0.65437E+00  0.80000E+00
  0.59886E+00  0.30090E+00  0.00000E+00  0.0  0.0  0.0 -0.26211E+00  0.0  0.64199E+00  0.90000E+00
  0.60430E+00  0.30090E+00  0.00000E+00  0.0  0.0  0.0 -0.21825E+00  0.0  0.66091E+00  0.95000E+00
  0.60974E+00  0.30090E+00  0.00000E+00  0.0  0.0  0.0 -0.55794E-01  0.0  0.72990E+00  0.10000E+01
  0.60430E+00  0.30090E+00  0.00000E+00  0.0  0.0  0.0 -0.89567E-02  0.0  0.74958E+00  0.95000E+00
  0.59886E+00  0.30090E+00  0.00000E+00  0.0  0.0  0.0  0.80257E-01  0.0  0.78695E+00  0.90000E+00
  0.58799E+00  0.30090E+00  0.00000E+00  0.0  0.0  0.0  0.28927E+00  0.0  0.87471E+00  0.80000E+00
  0.57711E+00  0.30090E+00  0.00000E+00  0.0  0.0  0.0  0.51482E+00  0.0  0.97141E+00  0.70000E+00
  0.57167E+00  0.30090E+00  0.00000E+00  0.0  0.0  0.0  0.61151E+00  0.0  0.10140E+01  0.65000E+00
  0.56624E+00  0.30090E+00  0.00000E+00  0.0  0.0  0.0  0.67272E+00  0.0  0.10415E+01  0.60000E+00
  0.56080E+00  0.30090E+00  0.00000E+00  0.0  0.0  0.0  0.69377E+00  0.0  0.10511E+01  0.55000E+00
  0.55536E+00  0.30090E+00  0.00000E+00  0.0  0.0  0.0  0.69971E+00  0.0  0.10538E+01  0.50000E+00
  0.54992E+00  0.30090E+00  0.00000E+00  0.0  0.0  0.0  0.69674E+00  0.0  0.10524E+01  0.45000E+00
  0.54448E+00  0.30090E+00  0.00000E+00  0.0  0.0  0.0  0.68697E+00  0.0  0.10480E+01  0.40000E+00
  0.53905E+00  0.30090E+00  0.00000E+00  0.0  0.0  0.0  0.68537E+00  0.0  0.10473E+01  0.35000E+00
  0.53361E+00  0.30090E+00  0.00000E+00  0.0  0.0  0.0  0.68012E+00  0.0  0.10449E+01  0.30000E+00
  0.52817E+00  0.30090E+00  0.00000E+00  0.0  0.0  0.0  0.71664E+00  0.0  0.10615E+01  0.25000E+00
  0.51186E+00  0.30090E+00  0.00000E+00  0.0  0.0  0.0  0.81944E+00  0.0  0.11093E+01  0.10000E+00
  0.50642E+00  0.30090E+00  0.00000E+00  0.0  0.0  0.0  0.80237E+00  0.0  0.11013E+01  0.50000E-01
  0.50424E+00  0.30090E+00  0.00000E+00  0.0  0.0  0.0  0.51972E+00  0.0  0.97355E+00  0.30000E-01
  0.50315E+00  0.30090E+00  0.00000E+00  0.0  0.0  0.0  0.30377E+00  0.0  0.88084E+00  0.20000E-01
  0.50207E+00  0.30090E+00  0.00000E+00  0.0  0.0  0.0 -0.19637E+00  0.0  0.67029E+00  0.10000E-01
ZONE T="wing section 7 y/b 0.638", I=   31, J=    1, K=    1, F=POINT
  0.53797E+00  0.37319E+00  0.00000E+00  0.0  0.0  0.0 -0.85346E+00  0.0  0.34919E+00  0.00000E+00
  0.53894E+00  0.37319E+00  0.00000E+00  0.0  0.0  0.0 -0.45841E+00  0.0  0.55466E+00  0.10000E-01
  0.54087E+00  0.37319E+00  0.00000E+00  0.0  0.0  0.0 -0.11064E+00  0.0  0.70676E+00  0.30000E-01
  0.54280E+00  0.37319E+00  0.00000E+00  0.0  0.0  0.0 -0.18517E-01  0.0  0.74556E+00  0.50000E-01
  0.54763E+00  0.37319E+00  0.00000E+00  0.0  0.0  0.0  0.12022E+00  0.0  0.80368E+00  0.10000E+00
  0.55730E+00  0.37319E+00  0.00000E+00  0.0  0.0  0.0  0.23103E+00  0.0  0.85016E+00  0.20000E+00
  0.56696E+00  0.37319E+00  0.00000E+00  0.0  0.0  0.0  0.33710E+00  0.0  0.89497E+00  0.30000E+00
  0.57662E+00  0.37319E+00  0.00000E+00  0.0  0.0  0.0  0.31179E+00  0.0  0.88424E+00  0.40000E+00
  0.58629E+00  0.37319E+00  0.00000E+00  0.0  0.0  0.0  0.22191E+00  0.0  0.84632E+00  0.50000E+00
  0.59595E+00  0.37319E+00  0.00000E+00  0.0  0.0  0.0  0.86407E-01  0.0  0.78953E+00  0.60000E+00
  0.60561E+00  0.37319E+00  0.00000E+00  0.0  0.0  0.0 -0.81604E-01  0.0  0.71902E+00  0.70000E+00
  0.62494E+00  0.37319E+00  0.00000E+00  0.0  0.0  0.0 -0.25705E+00  0.0  0.64418E+00  0.90000E+00
  0.62977E+00  0.37319E+00  0.00000E+00  0.0  0.0  0.0 -0.21597E+00  0.0  0.66189E+00  0.95000E+00
  0.63460E+00  0.37319E+00  0.00000E+00  0.0  0.0  0.0 -0.65961E-01  0.0  0.72561E+00  0.10000E+01
  0.62977E+00  0.37319E+00  0.00000E+00  0.0  0.0  0.0 -0.70054E-02  0.0  0.75039E+00  0.95000E+00
  0.62494E+00  0.37319E+00  0.00000E+00  0.0  0.0  0.0  0.73440E-01  0.0  0.78410E+00  0.90000E+00
  0.61528E+00  0.37319E+00  0.00000E+00  0.0  0.0  0.0  0.27462E+00  0.0  0.86852E+00  0.80000E+00
  0.60561E+00  0.37319E+00  0.00000E+00  0.0  0.0  0.0  0.49025E+00  0.0  0.96071E+00  0.70000E+00
  0.59595E+00  0.37319E+00  0.00000E+00  0.0  0.0  0.0  0.59261E+00  0.0  0.10056E+01  0.60000E+00
  0.59112E+00  0.37319E+00  0.00000E+00  0.0  0.0  0.0  0.64365E+00  0.0  0.10284E+01  0.55000E+00
  0.58629E+00  0.37319E+00  0.00000E+00  0.0  0.0  0.0  0.65445E+00  0.0  0.10333E+01  0.50000E+00
  0.58146E+00  0.37319E+00  0.00000E+00  0.0  0.0  0.0  0.65387E+00  0.0  0.10330E+01  0.45000E+00
  0.57662E+00  0.37319E+00  0.00000E+00  0.0  0.0  0.0  0.66260E+00  0.0  0.10370E+01  0.40000E+00
  0.57179E+00  0.37319E+00  0.00000E+00  0.0  0.0  0.0  0.59261E+00  0.0  0.10056E+01  0.35000E+00
  0.56696E+00  0.37319E+00  0.00000E+00  0.0  0.0  0.0  0.68119E+00  0.0  0.10454E+01  0.30000E+00
  0.56213E+00  0.37319E+00  0.00000E+00  0.0  0.0  0.0  0.68985E+00  0.0  0.10493E+01  0.25000E+00
  0.55730E+00  0.37319E+00  0.00000E+00  0.0  0.0  0.0  0.70653E+00  0.0  0.10569E+01  0.20000E+00
  0.55247E+00  0.37319E+00  0.00000E+00  0.0  0.0  0.0  0.71770E+00  0.0  0.10620E+01  0.15000E+00
  0.54280E+00  0.37319E+00  0.00000E+00  0.0  0.0  0.0  0.76967E+00  0.0  0.10860E+01  0.50000E-01
  0.53990E+00  0.37319E+00  0.00000E+00  0.0  0.0  0.0  0.26900E+00  0.0  0.86615E+00  0.20000E-01
  0.53894E+00  0.37319E+00  0.00000E+00  0.0  0.0  0.0 -0.15940E+00  0.0  0.68607E+00  0.10000E-01
ZONE T="wing section 8 y/b 0.847", I=   21, J=    1, K=    1, F=POINT
  0.67685E+00  0.49602E+00  0.00000E+00  0.0  0.0  0.0  0.30300E-01  0.0  0.76603E+00  0.10000E+01
  0.67305E+00  0.49602E+00  0.00000E+00  0.0  0.0  0.0 -0.31722E-01  0.0  0.74002E+00  0.95000E+00
  0.66925E+00  0.49602E+00  0.00000E+00  0.0  0.0  0.0  0.46790E-01  0.0  0.77294E+00  0.90000E+00
  0.66164E+00  0.49602E+00  0.00000E+00  0.0  0.0  0.0  0.24094E+00  0.0  0.85433E+00  0.80000E+00
  0.65404E+00  0.49602E+00  0.00000E+00  0.0  0.0  0.0  0.45150E+00  0.0  0.94393E+00  0.70000E+00
  0.65024E+00  0.49602E+00  0.00000E+00  0.0  0.0  0.0  0.53404E+00  0.0  0.97981E+00  0.65000E+00
  0.64644E+00  0.49602E+00  0.00000E+00  0.0  0.0  0.0  0.57229E+00  0.0  0.99664E+00  0.60000E+00
  0.64264E+00  0.49602E+00  0.00000E+00  0.0  0.0  0.0  0.58219E+00  0.0  0.10010E+01  0.55000E+00
  0.63884E+00  0.49602E+00  0.00000E+00  0.0  0.0  0.0  0.58539E+00  0.0  0.10024E+01  0.50000E+00
  0.63504E+00  0.49602E+00  0.00000E+00  0.0  0.0  0.0  0.58925E+00  0.0  0.10041E+01  0.45000E+00
  0.63123E+00  0.49602E+00  0.00000E+00  0.0  0.0  0.0  0.59601E+00  0.0  0.10071E+01  0.40000E+00
  0.62743E+00  0.49602E+00  0.00000E+00  0.0  0.0  0.0  0.60642E+00  0.0  0.10118E+01  0.35000E+00
  0.62363E+00  0.49602E+00  0.00000E+00  0.0  0.0  0.0  0.62271E+00  0.0  0.10190E+01  0.30000E+00
  0.61983E+00  0.49602E+00  0.00000E+00  0.0  0.0  0.0  0.63843E+00  0.0  0.10261E+01  0.25000E+00
  0.61603E+00  0.49602E+00  0.00000E+00  0.0  0.0  0.0  0.67320E+00  0.0  0.10417E+01  0.20000E+00
  0.61223E+00  0.49602E+00  0.00000E+00  0.0  0.0  0.0  0.71911E+00  0.0  0.10626E+01  0.15000E+00
  0.60843E+00  0.49602E+00  0.00000E+00  0.0  0.0  0.0  0.79702E+00  0.0  0.10988E+01  0.10000E+00
  0.60463E+00  0.49602E+00  0.00000E+00  0.0  0.0  0.0  0.68886E+00  0.0  0.10488E+01  0.50000E-01
  0.60235E+00  0.49602E+00  0.00000E+00  0.0  0.0  0.0  0.21419E+00  0.0  0.84308E+00  0.20000E-01
  0.60159E+00  0.49602E+00  0.00000E+00  0.0  0.0  0.0 -0.22565E+00  0.0  0.65773E+00  0.10000E-01
  0.60083E+00  0.49602E+00  0.00000E+00  0.0  0.0  0.0 -0.88259E+00  0.0  0.33069E+00  0.00000E+00
