TITLE= "F6 tests at ONERA S2MA W.T. August 1990 lot  273 Mach  0.7520 Incidence  0.490 CL 0.4984 - F6 WB"
VARIABLES= "X", "Y", "Z", "U", "V", "W", "-Cp", "Pi", "Mach", "X/C"
ZONE T="wing section 1 y/b 0.15", I=   32, J=    1, K=    1, F=POINT
  0.40264E+00  0.10872E+00  0.00000E+00  0.0  0.0  0.0 -0.90164E+00  0.0  0.31740E+00  0.00000E+00
  0.40817E+00  0.10872E+00  0.00000E+00  0.0  0.0  0.0 -0.34185E+00  0.0  0.60608E+00  0.30000E-01
  0.41186E+00  0.10872E+00  0.00000E+00  0.0  0.0  0.0 -0.13748E+00  0.0  0.69420E+00  0.50000E-01
  0.42108E+00  0.10872E+00  0.00000E+00  0.0  0.0  0.0  0.49599E-01  0.0  0.77277E+00  0.10000E+00
  0.43953E+00  0.10872E+00  0.00000E+00  0.0  0.0  0.0  0.15993E+00  0.0  0.81886E+00  0.20000E+00
  0.45798E+00  0.10872E+00  0.00000E+00  0.0  0.0  0.0  0.21626E+00  0.0  0.84244E+00  0.30000E+00
  0.47643E+00  0.10872E+00  0.00000E+00  0.0  0.0  0.0  0.26235E+00  0.0  0.86179E+00  0.40000E+00
  0.51332E+00  0.10872E+00  0.00000E+00  0.0  0.0  0.0  0.20420E+00  0.0  0.83739E+00  0.60000E+00
  0.53177E+00  0.10872E+00  0.00000E+00  0.0  0.0  0.0  0.15937E-02  0.0  0.75270E+00  0.70000E+00
  0.55022E+00  0.10872E+00  0.00000E+00  0.0  0.0  0.0 -0.17832E+00  0.0  0.67685E+00  0.80000E+00
  0.56866E+00  0.10872E+00  0.00000E+00  0.0  0.0  0.0 -0.21551E+00  0.0  0.66096E+00  0.90000E+00
  0.57789E+00  0.10872E+00  0.00000E+00  0.0  0.0  0.0 -0.19201E+00  0.0  0.67101E+00  0.95000E+00
  0.58711E+00  0.10872E+00  0.00000E+00  0.0  0.0  0.0 -0.11102E+00  0.0  0.70539E+00  0.10000E+01
  0.57789E+00  0.10872E+00  0.00000E+00  0.0  0.0  0.0  0.43101E-01  0.0  0.77005E+00  0.95000E+00
  0.56866E+00  0.10872E+00  0.00000E+00  0.0  0.0  0.0  0.14590E+00  0.0  0.81300E+00  0.90000E+00
  0.55022E+00  0.10872E+00  0.00000E+00  0.0  0.0  0.0  0.26110E+00  0.0  0.86127E+00  0.80000E+00
  0.53177E+00  0.10872E+00  0.00000E+00  0.0  0.0  0.0  0.39195E+00  0.0  0.91664E+00  0.70000E+00
  0.52254E+00  0.10872E+00  0.00000E+00  0.0  0.0  0.0  0.46405E+00  0.0  0.94756E+00  0.65000E+00
  0.51332E+00  0.10872E+00  0.00000E+00  0.0  0.0  0.0  0.52785E+00  0.0  0.97523E+00  0.60000E+00
  0.50410E+00  0.10872E+00  0.00000E+00  0.0  0.0  0.0  0.55854E+00  0.0  0.98866E+00  0.55000E+00
  0.49487E+00  0.10872E+00  0.00000E+00  0.0  0.0  0.0  0.63242E+00  0.0  0.10214E+01  0.50000E+00
  0.48565E+00  0.10872E+00  0.00000E+00  0.0  0.0  0.0  0.56666E+00  0.0  0.99223E+00  0.45000E+00
  0.47643E+00  0.10872E+00  0.00000E+00  0.0  0.0  0.0  0.61712E+00  0.0  0.10145E+01  0.40000E+00
  0.46720E+00  0.10872E+00  0.00000E+00  0.0  0.0  0.0  0.70109E+00  0.0  0.10523E+01  0.35000E+00
  0.44876E+00  0.10872E+00  0.00000E+00  0.0  0.0  0.0  0.83655E+00  0.0  0.11151E+01  0.25000E+00
  0.43953E+00  0.10872E+00  0.00000E+00  0.0  0.0  0.0  0.85938E+00  0.0  0.11259E+01  0.20000E+00
  0.43031E+00  0.10872E+00  0.00000E+00  0.0  0.0  0.0  0.81964E+00  0.0  0.11071E+01  0.15000E+00
  0.42108E+00  0.10872E+00  0.00000E+00  0.0  0.0  0.0  0.88197E+00  0.0  0.11367E+01  0.10000E+00
  0.41186E+00  0.10872E+00  0.00000E+00  0.0  0.0  0.0  0.87326E+00  0.0  0.11326E+01  0.50000E-01
  0.40817E+00  0.10872E+00  0.00000E+00  0.0  0.0  0.0  0.60401E+00  0.0  0.10087E+01  0.30000E-01
  0.40633E+00  0.10872E+00  0.00000E+00  0.0  0.0  0.0  0.35224E+00  0.0  0.89975E+00  0.20000E-01
  0.40448E+00  0.10872E+00  0.00000E+00  0.0  0.0  0.0 -0.45446E-01  0.0  0.73298E+00  0.10000E-01
ZONE T="wing section 2 y/b 0.239", I=   33, J=    1, K=    1, F=POINT
  0.41858E+00  0.13987E+00  0.00000E+00  0.0  0.0  0.0 -0.76059E+00  0.0  0.40292E+00  0.00000E+00
  0.42026E+00  0.13987E+00  0.00000E+00  0.0  0.0  0.0 -0.60725E+00  0.0  0.48302E+00  0.10000E-01
  0.42700E+00  0.13987E+00  0.00000E+00  0.0  0.0  0.0 -0.10838E+00  0.0  0.70650E+00  0.50000E-01
  0.43543E+00  0.13987E+00  0.00000E+00  0.0  0.0  0.0  0.10054E+00  0.0  0.79405E+00  0.10000E+00
  0.45228E+00  0.13987E+00  0.00000E+00  0.0  0.0  0.0  0.21402E+00  0.0  0.84150E+00  0.20000E+00
  0.46914E+00  0.13987E+00  0.00000E+00  0.0  0.0  0.0  0.29361E+00  0.0  0.87495E+00  0.30000E+00
  0.48599E+00  0.13987E+00  0.00000E+00  0.0  0.0  0.0  0.33553E+00  0.0  0.89267E+00  0.40000E+00
  0.50284E+00  0.13987E+00  0.00000E+00  0.0  0.0  0.0  0.34175E+00  0.0  0.89530E+00  0.50000E+00
  0.51970E+00  0.13987E+00  0.00000E+00  0.0  0.0  0.0  0.19320E+00  0.0  0.83278E+00  0.60000E+00
  0.53655E+00  0.13987E+00  0.00000E+00  0.0  0.0  0.0 -0.21402E-01  0.0  0.74307E+00  0.70000E+00
  0.55340E+00  0.13987E+00  0.00000E+00  0.0  0.0  0.0 -0.22587E+00  0.0  0.65652E+00  0.80000E+00
  0.57026E+00  0.13987E+00  0.00000E+00  0.0  0.0  0.0 -0.26293E+00  0.0  0.64054E+00  0.90000E+00
  0.57868E+00  0.13987E+00  0.00000E+00  0.0  0.0  0.0 -0.24010E+00  0.0  0.65040E+00  0.95000E+00
  0.58711E+00  0.13987E+00  0.00000E+00  0.0  0.0  0.0 -0.11102E+00  0.0  0.70539E+00  0.10000E+01
  0.57868E+00  0.13987E+00  0.00000E+00  0.0  0.0  0.0 -0.30641E-01  0.0  0.73919E+00  0.95000E+00
  0.57026E+00  0.13987E+00  0.00000E+00  0.0  0.0  0.0  0.96712E-01  0.0  0.79245E+00  0.90000E+00
  0.55340E+00  0.13987E+00  0.00000E+00  0.0  0.0  0.0  0.29060E+00  0.0  0.87369E+00  0.80000E+00
  0.53655E+00  0.13987E+00  0.00000E+00  0.0  0.0  0.0  0.43223E+00  0.0  0.93387E+00  0.70000E+00
  0.52812E+00  0.13987E+00  0.00000E+00  0.0  0.0  0.0  0.50241E+00  0.0  0.96416E+00  0.65000E+00
  0.51970E+00  0.13987E+00  0.00000E+00  0.0  0.0  0.0  0.55349E+00  0.0  0.98644E+00  0.60000E+00
  0.51127E+00  0.13987E+00  0.00000E+00  0.0  0.0  0.0  0.57424E+00  0.0  0.99556E+00  0.55000E+00
  0.50284E+00  0.13987E+00  0.00000E+00  0.0  0.0  0.0  0.58446E+00  0.0  0.10001E+01  0.50000E+00
  0.49442E+00  0.13987E+00  0.00000E+00  0.0  0.0  0.0  0.60567E+00  0.0  0.10095E+01  0.45000E+00
  0.48599E+00  0.13987E+00  0.00000E+00  0.0  0.0  0.0  0.62313E+00  0.0  0.10172E+01  0.40000E+00
  0.47756E+00  0.13987E+00  0.00000E+00  0.0  0.0  0.0  0.63434E+00  0.0  0.10222E+01  0.35000E+00
  0.46914E+00  0.13987E+00  0.00000E+00  0.0  0.0  0.0  0.68319E+00  0.0  0.10442E+01  0.30000E+00
  0.46071E+00  0.13987E+00  0.00000E+00  0.0  0.0  0.0  0.95849E+00  0.0  0.11741E+01  0.25000E+00
  0.45228E+00  0.13987E+00  0.00000E+00  0.0  0.0  0.0  0.97944E+00  0.0  0.11845E+01  0.20000E+00
  0.44386E+00  0.13987E+00  0.00000E+00  0.0  0.0  0.0  0.12805E+01  0.0  0.13459E+01  0.15000E+00
  0.43543E+00  0.13987E+00  0.00000E+00  0.0  0.0  0.0  0.13195E+01  0.0  0.13689E+01  0.10000E+00
  0.42700E+00  0.13987E+00  0.00000E+00  0.0  0.0  0.0  0.11943E+01  0.0  0.12971E+01  0.50000E-01
  0.42363E+00  0.13987E+00  0.00000E+00  0.0  0.0  0.0  0.78166E+00  0.0  0.10893E+01  0.30000E-01
  0.42195E+00  0.13987E+00  0.00000E+00  0.0  0.0  0.0  0.55104E+00  0.0  0.98537E+00  0.20000E-01
ZONE T="wing section 3 y/b 0.331", I=   33, J=    1, K=    1, F=POINT
  0.44655E+00  0.19453E+00  0.00000E+00  0.0  0.0  0.0 -0.71888E+00  0.0  0.42570E+00  0.00000E+00
  0.44795E+00  0.19453E+00  0.00000E+00  0.0  0.0  0.0 -0.54785E+00  0.0  0.51186E+00  0.10000E-01
  0.45076E+00  0.19453E+00  0.00000E+00  0.0  0.0  0.0 -0.26202E+00  0.0  0.64093E+00  0.30000E-01
  0.45357E+00  0.19453E+00  0.00000E+00  0.0  0.0  0.0 -0.87687E-01  0.0  0.71523E+00  0.50000E-01
  0.47466E+00  0.19453E+00  0.00000E+00  0.0  0.0  0.0  0.22826E+00  0.0  0.84747E+00  0.20000E+00
  0.48871E+00  0.19453E+00  0.00000E+00  0.0  0.0  0.0  0.32835E+00  0.0  0.88963E+00  0.30000E+00
  0.50277E+00  0.19453E+00  0.00000E+00  0.0  0.0  0.0  0.34307E+00  0.0  0.89586E+00  0.40000E+00
  0.51683E+00  0.19453E+00  0.00000E+00  0.0  0.0  0.0  0.29950E+00  0.0  0.87744E+00  0.50000E+00
  0.53088E+00  0.19453E+00  0.00000E+00  0.0  0.0  0.0  0.15064E+00  0.0  0.81498E+00  0.60000E+00
  0.54494E+00  0.19453E+00  0.00000E+00  0.0  0.0  0.0 -0.58470E-01  0.0  0.72752E+00  0.70000E+00
  0.55900E+00  0.19453E+00  0.00000E+00  0.0  0.0  0.0 -0.25117E+00  0.0  0.64562E+00  0.80000E+00
  0.57305E+00  0.19453E+00  0.00000E+00  0.0  0.0  0.0 -0.27650E+00  0.0  0.63466E+00  0.90000E+00
  0.58008E+00  0.19453E+00  0.00000E+00  0.0  0.0  0.0 -0.24458E+00  0.0  0.64847E+00  0.95000E+00
  0.58711E+00  0.19453E+00  0.00000E+00  0.0  0.0  0.0 -0.97667E-01  0.0  0.71102E+00  0.10000E+01
  0.58008E+00  0.19453E+00  0.00000E+00  0.0  0.0  0.0 -0.15693E-01  0.0  0.74546E+00  0.95000E+00
  0.57305E+00  0.19453E+00  0.00000E+00  0.0  0.0  0.0  0.94654E-01  0.0  0.79159E+00  0.90000E+00
  0.55900E+00  0.19453E+00  0.00000E+00  0.0  0.0  0.0  0.30933E+00  0.0  0.88159E+00  0.80000E+00
  0.54494E+00  0.19453E+00  0.00000E+00  0.0  0.0  0.0  0.51373E+00  0.0  0.96908E+00  0.70000E+00
  0.53791E+00  0.19453E+00  0.00000E+00  0.0  0.0  0.0  0.60868E+00  0.0  0.10108E+01  0.65000E+00
  0.53088E+00  0.19453E+00  0.00000E+00  0.0  0.0  0.0  0.66479E+00  0.0  0.10359E+01  0.60000E+00
  0.52386E+00  0.19453E+00  0.00000E+00  0.0  0.0  0.0  0.64824E+00  0.0  0.10284E+01  0.55000E+00
  0.51683E+00  0.19453E+00  0.00000E+00  0.0  0.0  0.0  0.65702E+00  0.0  0.10324E+01  0.50000E+00
  0.50980E+00  0.19453E+00  0.00000E+00  0.0  0.0  0.0  0.64868E+00  0.0  0.10286E+01  0.45000E+00
  0.50277E+00  0.19453E+00  0.00000E+00  0.0  0.0  0.0  0.61604E+00  0.0  0.10141E+01  0.40000E+00
  0.49574E+00  0.19453E+00  0.00000E+00  0.0  0.0  0.0  0.57434E+00  0.0  0.99561E+00  0.35000E+00
  0.48871E+00  0.19453E+00  0.00000E+00  0.0  0.0  0.0  0.58213E+00  0.0  0.99904E+00  0.30000E+00
  0.48169E+00  0.19453E+00  0.00000E+00  0.0  0.0  0.0  0.11523E+01  0.0  0.12742E+01  0.25000E+00
  0.47466E+00  0.19453E+00  0.00000E+00  0.0  0.0  0.0  0.12957E+01  0.0  0.13548E+01  0.20000E+00
  0.46763E+00  0.19453E+00  0.00000E+00  0.0  0.0  0.0  0.13098E+01  0.0  0.13631E+01  0.15000E+00
  0.46060E+00  0.19453E+00  0.00000E+00  0.0  0.0  0.0  0.13241E+01  0.0  0.13716E+01  0.10000E+00
  0.45357E+00  0.19453E+00  0.00000E+00  0.0  0.0  0.0  0.10694E+01  0.0  0.12303E+01  0.50000E-01
  0.44936E+00  0.19453E+00  0.00000E+00  0.0  0.0  0.0  0.50189E+00  0.0  0.96393E+00  0.20000E-01
  0.44795E+00  0.19453E+00  0.00000E+00  0.0  0.0  0.0  0.19572E+00  0.0  0.83383E+00  0.10000E-01
ZONE T="wing section 4 y/b 0.377", I=   32, J=    1, K=    1, F=POINT
  0.46038E+00  0.22156E+00  0.00000E+00  0.0  0.0  0.0 -0.78822E+00  0.0  0.38732E+00  0.00000E+00
  0.46165E+00  0.22156E+00  0.00000E+00  0.0  0.0  0.0 -0.52449E+00  0.0  0.52295E+00  0.10000E-01
  0.46418E+00  0.22156E+00  0.00000E+00  0.0  0.0  0.0 -0.21342E+00  0.0  0.66186E+00  0.30000E-01
  0.46672E+00  0.22156E+00  0.00000E+00  0.0  0.0  0.0 -0.73665E-01  0.0  0.72113E+00  0.50000E-01
  0.47305E+00  0.22156E+00  0.00000E+00  0.0  0.0  0.0  0.39747E-01  0.0  0.76865E+00  0.10000E+00
  0.48573E+00  0.22156E+00  0.00000E+00  0.0  0.0  0.0  0.20828E+00  0.0  0.83910E+00  0.20000E+00
  0.49840E+00  0.22156E+00  0.00000E+00  0.0  0.0  0.0  0.32786E+00  0.0  0.88942E+00  0.30000E+00
  0.51107E+00  0.22156E+00  0.00000E+00  0.0  0.0  0.0  0.34517E+00  0.0  0.89675E+00  0.40000E+00
  0.52374E+00  0.22156E+00  0.00000E+00  0.0  0.0  0.0  0.27686E+00  0.0  0.86790E+00  0.50000E+00
  0.53642E+00  0.22156E+00  0.00000E+00  0.0  0.0  0.0  0.13097E+00  0.0  0.80676E+00  0.60000E+00
  0.54909E+00  0.22156E+00  0.00000E+00  0.0  0.0  0.0 -0.57294E-01  0.0  0.72801E+00  0.70000E+00
  0.56176E+00  0.22156E+00  0.00000E+00  0.0  0.0  0.0 -0.25826E+00  0.0  0.64256E+00  0.80000E+00
  0.57444E+00  0.22156E+00  0.00000E+00  0.0  0.0  0.0 -0.28973E+00  0.0  0.62891E+00  0.90000E+00
  0.58077E+00  0.22156E+00  0.00000E+00  0.0  0.0  0.0 -0.24374E+00  0.0  0.64883E+00  0.95000E+00
  0.58711E+00  0.22156E+00  0.00000E+00  0.0  0.0  0.0 -0.67548E-01  0.0  0.72370E+00  0.10000E+01
  0.57444E+00  0.22156E+00  0.00000E+00  0.0  0.0  0.0  0.10657E+00  0.0  0.79657E+00  0.90000E+00
  0.56176E+00  0.22156E+00  0.00000E+00  0.0  0.0  0.0  0.34896E+00  0.0  0.89836E+00  0.80000E+00
  0.54909E+00  0.22156E+00  0.00000E+00  0.0  0.0  0.0  0.57566E+00  0.0  0.99619E+00  0.70000E+00
  0.54275E+00  0.22156E+00  0.00000E+00  0.0  0.0  0.0  0.69276E+00  0.0  0.10485E+01  0.65000E+00
  0.53642E+00  0.22156E+00  0.00000E+00  0.0  0.0  0.0  0.73606E+00  0.0  0.10682E+01  0.60000E+00
  0.53008E+00  0.22156E+00  0.00000E+00  0.0  0.0  0.0  0.71115E+00  0.0  0.10569E+01  0.55000E+00
  0.52374E+00  0.22156E+00  0.00000E+00  0.0  0.0  0.0  0.70358E+00  0.0  0.10534E+01  0.50000E+00
  0.51741E+00  0.22156E+00  0.00000E+00  0.0  0.0  0.0  0.69232E+00  0.0  0.10483E+01  0.45000E+00
  0.51107E+00  0.22156E+00  0.00000E+00  0.0  0.0  0.0  0.64306E+00  0.0  0.10261E+01  0.40000E+00
  0.50474E+00  0.22156E+00  0.00000E+00  0.0  0.0  0.0  0.57321E+00  0.0  0.99511E+00  0.35000E+00
  0.49840E+00  0.22156E+00  0.00000E+00  0.0  0.0  0.0  0.62005E+00  0.0  0.10158E+01  0.30000E+00
  0.49206E+00  0.22156E+00  0.00000E+00  0.0  0.0  0.0  0.11503E+01  0.0  0.12731E+01  0.25000E+00
  0.48573E+00  0.22156E+00  0.00000E+00  0.0  0.0  0.0  0.12161E+01  0.0  0.13093E+01  0.20000E+00
  0.47939E+00  0.22156E+00  0.00000E+00  0.0  0.0  0.0  0.11955E+01  0.0  0.12978E+01  0.15000E+00
  0.47305E+00  0.22156E+00  0.00000E+00  0.0  0.0  0.0  0.12076E+01  0.0  0.13045E+01  0.10000E+00
  0.46672E+00  0.22156E+00  0.00000E+00  0.0  0.0  0.0  0.10628E+01  0.0  0.12269E+01  0.50000E-01
  0.46291E+00  0.22156E+00  0.00000E+00  0.0  0.0  0.0  0.52968E+00  0.0  0.97603E+00  0.20000E-01
ZONE T="wing section 5 y/b 0.411", I=   32, J=    1, K=    1, F=POINT
  0.47000E+00  0.24037E+00  0.00000E+00  0.0  0.0  0.0 -0.77885E+00  0.0  0.39266E+00  0.00000E+00
  0.47119E+00  0.24037E+00  0.00000E+00  0.0  0.0  0.0 -0.48382E+00  0.0  0.54198E+00  0.10000E-01
  0.47357E+00  0.24037E+00  0.00000E+00  0.0  0.0  0.0 -0.20046E+00  0.0  0.66740E+00  0.30000E-01
  0.47595E+00  0.24037E+00  0.00000E+00  0.0  0.0  0.0 -0.10242E+00  0.0  0.70901E+00  0.50000E-01
  0.48189E+00  0.24037E+00  0.00000E+00  0.0  0.0  0.0  0.24479E-01  0.0  0.76227E+00  0.10000E+00
  0.49379E+00  0.24037E+00  0.00000E+00  0.0  0.0  0.0  0.18768E+00  0.0  0.83047E+00  0.20000E+00
  0.50568E+00  0.24037E+00  0.00000E+00  0.0  0.0  0.0  0.31384E+00  0.0  0.88349E+00  0.30000E+00
  0.51757E+00  0.24037E+00  0.00000E+00  0.0  0.0  0.0  0.32702E+00  0.0  0.88907E+00  0.40000E+00
  0.52946E+00  0.24037E+00  0.00000E+00  0.0  0.0  0.0  0.26087E+00  0.0  0.86117E+00  0.50000E+00
  0.54135E+00  0.24037E+00  0.00000E+00  0.0  0.0  0.0  0.12290E+00  0.0  0.80338E+00  0.60000E+00
  0.55325E+00  0.24037E+00  0.00000E+00  0.0  0.0  0.0 -0.73346E-01  0.0  0.72126E+00  0.70000E+00
  0.56514E+00  0.24037E+00  0.00000E+00  0.0  0.0  0.0 -0.25485E+00  0.0  0.64404E+00  0.80000E+00
  0.57703E+00  0.24037E+00  0.00000E+00  0.0  0.0  0.0 -0.28357E+00  0.0  0.63159E+00  0.90000E+00
  0.58892E+00  0.24037E+00  0.00000E+00  0.0  0.0  0.0 -0.33897E-01  0.0  0.73783E+00  0.10000E+01
  0.58297E+00  0.24037E+00  0.00000E+00  0.0  0.0  0.0  0.28894E-01  0.0  0.76411E+00  0.95000E+00
  0.57703E+00  0.24037E+00  0.00000E+00  0.0  0.0  0.0  0.12580E+00  0.0  0.80460E+00  0.90000E+00
  0.56514E+00  0.24037E+00  0.00000E+00  0.0  0.0  0.0  0.35224E+00  0.0  0.89975E+00  0.80000E+00
  0.55325E+00  0.24037E+00  0.00000E+00  0.0  0.0  0.0  0.60113E+00  0.0  0.10074E+01  0.70000E+00
  0.54730E+00  0.24037E+00  0.00000E+00  0.0  0.0  0.0  0.74137E+00  0.0  0.10707E+01  0.65000E+00
  0.54135E+00  0.24037E+00  0.00000E+00  0.0  0.0  0.0  0.72971E+00  0.0  0.10653E+01  0.60000E+00
  0.53541E+00  0.24037E+00  0.00000E+00  0.0  0.0  0.0  0.75241E+00  0.0  0.10758E+01  0.55000E+00
  0.52946E+00  0.24037E+00  0.00000E+00  0.0  0.0  0.0  0.72270E+00  0.0  0.10621E+01  0.50000E+00
  0.52352E+00  0.24037E+00  0.00000E+00  0.0  0.0  0.0  0.71071E+00  0.0  0.10567E+01  0.45000E+00
  0.51757E+00  0.24037E+00  0.00000E+00  0.0  0.0  0.0  0.66284E+00  0.0  0.10350E+01  0.40000E+00
  0.51162E+00  0.24037E+00  0.00000E+00  0.0  0.0  0.0  0.58982E+00  0.0  0.10024E+01  0.35000E+00
  0.50568E+00  0.24037E+00  0.00000E+00  0.0  0.0  0.0  0.71102E+00  0.0  0.10568E+01  0.30000E+00
  0.49973E+00  0.24037E+00  0.00000E+00  0.0  0.0  0.0  0.10891E+01  0.0  0.12405E+01  0.25000E+00
  0.49379E+00  0.24037E+00  0.00000E+00  0.0  0.0  0.0  0.11225E+01  0.0  0.12582E+01  0.20000E+00
  0.48784E+00  0.24037E+00  0.00000E+00  0.0  0.0  0.0  0.11300E+01  0.0  0.12622E+01  0.15000E+00
  0.48189E+00  0.24037E+00  0.00000E+00  0.0  0.0  0.0  0.11566E+01  0.0  0.12765E+01  0.10000E+00
  0.47238E+00  0.24037E+00  0.00000E+00  0.0  0.0  0.0  0.46776E+00  0.0  0.94916E+00  0.20000E-01
  0.47119E+00  0.24037E+00  0.00000E+00  0.0  0.0  0.0  0.10908E-01  0.0  0.75659E+00  0.10000E-01
ZONE T="wing section 6 y/b 0.514", I=   32, J=    1, K=    1, F=POINT
  0.50098E+00  0.30090E+00  0.00000E+00  0.0  0.0  0.0 -0.82066E+00  0.0  0.36837E+00  0.00000E+00
  0.50207E+00  0.30090E+00  0.00000E+00  0.0  0.0  0.0 -0.53931E+00  0.0  0.51593E+00  0.10000E-01
  0.50642E+00  0.30090E+00  0.00000E+00  0.0  0.0  0.0 -0.97308E-01  0.0  0.71117E+00  0.50000E-01
  0.51186E+00  0.30090E+00  0.00000E+00  0.0  0.0  0.0  0.25684E-01  0.0  0.76277E+00  0.10000E+00
  0.52273E+00  0.30090E+00  0.00000E+00  0.0  0.0  0.0  0.16885E+00  0.0  0.82259E+00  0.20000E+00
  0.53361E+00  0.30090E+00  0.00000E+00  0.0  0.0  0.0  0.28922E+00  0.0  0.87310E+00  0.30000E+00
  0.54448E+00  0.30090E+00  0.00000E+00  0.0  0.0  0.0  0.28043E+00  0.0  0.86940E+00  0.40000E+00
  0.55536E+00  0.30090E+00  0.00000E+00  0.0  0.0  0.0  0.19169E+00  0.0  0.83215E+00  0.50000E+00
  0.56624E+00  0.30090E+00  0.00000E+00  0.0  0.0  0.0  0.68816E-01  0.0  0.78080E+00  0.60000E+00
  0.57711E+00  0.30090E+00  0.00000E+00  0.0  0.0  0.0 -0.93118E-01  0.0  0.71294E+00  0.70000E+00
  0.58799E+00  0.30090E+00  0.00000E+00  0.0  0.0  0.0 -0.24728E+00  0.0  0.64730E+00  0.80000E+00
  0.59886E+00  0.30090E+00  0.00000E+00  0.0  0.0  0.0 -0.26942E+00  0.0  0.63773E+00  0.90000E+00
  0.60430E+00  0.30090E+00  0.00000E+00  0.0  0.0  0.0 -0.22090E+00  0.0  0.65865E+00  0.95000E+00
  0.60974E+00  0.30090E+00  0.00000E+00  0.0  0.0  0.0 -0.45253E-01  0.0  0.73306E+00  0.10000E+01
  0.60430E+00  0.30090E+00  0.00000E+00  0.0  0.0  0.0 -0.31673E-02  0.0  0.75070E+00  0.95000E+00
  0.59886E+00  0.30090E+00  0.00000E+00  0.0  0.0  0.0  0.79648E-01  0.0  0.78532E+00  0.90000E+00
  0.58799E+00  0.30090E+00  0.00000E+00  0.0  0.0  0.0  0.28463E+00  0.0  0.87117E+00  0.80000E+00
  0.57711E+00  0.30090E+00  0.00000E+00  0.0  0.0  0.0  0.51472E+00  0.0  0.96951E+00  0.70000E+00
  0.57167E+00  0.30090E+00  0.00000E+00  0.0  0.0  0.0  0.61516E+00  0.0  0.10137E+01  0.65000E+00
  0.56624E+00  0.30090E+00  0.00000E+00  0.0  0.0  0.0  0.68523E+00  0.0  0.10451E+01  0.60000E+00
  0.56080E+00  0.30090E+00  0.00000E+00  0.0  0.0  0.0  0.72814E+00  0.0  0.10646E+01  0.55000E+00
  0.55536E+00  0.30090E+00  0.00000E+00  0.0  0.0  0.0  0.75595E+00  0.0  0.10774E+01  0.50000E+00
  0.54992E+00  0.30090E+00  0.00000E+00  0.0  0.0  0.0  0.73975E+00  0.0  0.10699E+01  0.45000E+00
  0.54448E+00  0.30090E+00  0.00000E+00  0.0  0.0  0.0  0.72238E+00  0.0  0.10620E+01  0.40000E+00
  0.53905E+00  0.30090E+00  0.00000E+00  0.0  0.0  0.0  0.69230E+00  0.0  0.10483E+01  0.35000E+00
  0.53361E+00  0.30090E+00  0.00000E+00  0.0  0.0  0.0  0.57688E+00  0.0  0.99672E+00  0.30000E+00
  0.52817E+00  0.30090E+00  0.00000E+00  0.0  0.0  0.0  0.94245E+00  0.0  0.11662E+01  0.25000E+00
  0.51186E+00  0.30090E+00  0.00000E+00  0.0  0.0  0.0  0.11517E+01  0.0  0.12738E+01  0.10000E+00
  0.50642E+00  0.30090E+00  0.00000E+00  0.0  0.0  0.0  0.10533E+01  0.0  0.12219E+01  0.50000E-01
  0.50424E+00  0.30090E+00  0.00000E+00  0.0  0.0  0.0  0.69081E+00  0.0  0.10476E+01  0.30000E-01
  0.50315E+00  0.30090E+00  0.00000E+00  0.0  0.0  0.0  0.48078E+00  0.0  0.95478E+00  0.20000E-01
  0.50207E+00  0.30090E+00  0.00000E+00  0.0  0.0  0.0 -0.40902E-01  0.0  0.73489E+00  0.10000E-01
ZONE T="wing section 7 y/b 0.638", I=   31, J=    1, K=    1, F=POINT
  0.53797E+00  0.37319E+00  0.00000E+00  0.0  0.0  0.0 -0.80265E+00  0.0  0.37898E+00  0.00000E+00
  0.53894E+00  0.37319E+00  0.00000E+00  0.0  0.0  0.0 -0.58212E+00  0.0  0.49534E+00  0.10000E-01
  0.54087E+00  0.37319E+00  0.00000E+00  0.0  0.0  0.0 -0.25018E+00  0.0  0.64605E+00  0.30000E-01
  0.54280E+00  0.37319E+00  0.00000E+00  0.0  0.0  0.0 -0.14175E+00  0.0  0.69239E+00  0.50000E-01
  0.54763E+00  0.37319E+00  0.00000E+00  0.0  0.0  0.0  0.16230E-01  0.0  0.75882E+00  0.10000E+00
  0.55730E+00  0.37319E+00  0.00000E+00  0.0  0.0  0.0  0.15086E+00  0.0  0.81507E+00  0.20000E+00
  0.56696E+00  0.37319E+00  0.00000E+00  0.0  0.0  0.0  0.26356E+00  0.0  0.86230E+00  0.30000E+00
  0.57662E+00  0.37319E+00  0.00000E+00  0.0  0.0  0.0  0.25765E+00  0.0  0.85981E+00  0.40000E+00
  0.58629E+00  0.37319E+00  0.00000E+00  0.0  0.0  0.0  0.18484E+00  0.0  0.82928E+00  0.50000E+00
  0.59595E+00  0.37319E+00  0.00000E+00  0.0  0.0  0.0  0.63991E-01  0.0  0.77878E+00  0.60000E+00
  0.60561E+00  0.37319E+00  0.00000E+00  0.0  0.0  0.0 -0.94429E-01  0.0  0.71238E+00  0.70000E+00
  0.62494E+00  0.37319E+00  0.00000E+00  0.0  0.0  0.0 -0.26308E+00  0.0  0.64048E+00  0.90000E+00
  0.62977E+00  0.37319E+00  0.00000E+00  0.0  0.0  0.0 -0.21730E+00  0.0  0.66019E+00  0.95000E+00
  0.63460E+00  0.37319E+00  0.00000E+00  0.0  0.0  0.0 -0.52445E-01  0.0  0.73005E+00  0.10000E+01
  0.62977E+00  0.37319E+00  0.00000E+00  0.0  0.0  0.0 -0.23194E-02  0.0  0.75106E+00  0.95000E+00
  0.62494E+00  0.37319E+00  0.00000E+00  0.0  0.0  0.0  0.69603E-01  0.0  0.78113E+00  0.90000E+00
  0.61528E+00  0.37319E+00  0.00000E+00  0.0  0.0  0.0  0.26617E+00  0.0  0.86340E+00  0.80000E+00
  0.60561E+00  0.37319E+00  0.00000E+00  0.0  0.0  0.0  0.48730E+00  0.0  0.95760E+00  0.70000E+00
  0.59595E+00  0.37319E+00  0.00000E+00  0.0  0.0  0.0  0.59554E+00  0.0  0.10050E+01  0.60000E+00
  0.59112E+00  0.37319E+00  0.00000E+00  0.0  0.0  0.0  0.66628E+00  0.0  0.10365E+01  0.55000E+00
  0.58629E+00  0.37319E+00  0.00000E+00  0.0  0.0  0.0  0.68790E+00  0.0  0.10463E+01  0.50000E+00
  0.58146E+00  0.37319E+00  0.00000E+00  0.0  0.0  0.0  0.69692E+00  0.0  0.10504E+01  0.45000E+00
  0.57662E+00  0.37319E+00  0.00000E+00  0.0  0.0  0.0  0.70572E+00  0.0  0.10544E+01  0.40000E+00
  0.57179E+00  0.37319E+00  0.00000E+00  0.0  0.0  0.0  0.59554E+00  0.0  0.10050E+01  0.35000E+00
  0.56696E+00  0.37319E+00  0.00000E+00  0.0  0.0  0.0  0.68123E+00  0.0  0.10433E+01  0.30000E+00
  0.56213E+00  0.37319E+00  0.00000E+00  0.0  0.0  0.0  0.70418E+00  0.0  0.10537E+01  0.25000E+00
  0.55730E+00  0.37319E+00  0.00000E+00  0.0  0.0  0.0  0.10765E+01  0.0  0.12340E+01  0.20000E+00
  0.55247E+00  0.37319E+00  0.00000E+00  0.0  0.0  0.0  0.11173E+01  0.0  0.12554E+01  0.15000E+00
  0.54280E+00  0.37319E+00  0.00000E+00  0.0  0.0  0.0  0.99934E+00  0.0  0.11945E+01  0.50000E-01
  0.53990E+00  0.37319E+00  0.00000E+00  0.0  0.0  0.0  0.45867E+00  0.0  0.94524E+00  0.20000E-01
  0.53894E+00  0.37319E+00  0.00000E+00  0.0  0.0  0.0  0.88966E-02  0.0  0.75575E+00  0.10000E-01
ZONE T="wing section 8 y/b 0.847", I=   21, J=    1, K=    1, F=POINT
  0.67685E+00  0.49602E+00  0.00000E+00  0.0  0.0  0.0  0.34632E-01  0.0  0.76651E+00  0.10000E+01
  0.67305E+00  0.49602E+00  0.00000E+00  0.0  0.0  0.0 -0.26788E-01  0.0  0.74081E+00  0.95000E+00
  0.66925E+00  0.49602E+00  0.00000E+00  0.0  0.0  0.0  0.43764E-01  0.0  0.77033E+00  0.90000E+00
  0.66164E+00  0.49602E+00  0.00000E+00  0.0  0.0  0.0  0.23203E+00  0.0  0.84906E+00  0.80000E+00
  0.65404E+00  0.49602E+00  0.00000E+00  0.0  0.0  0.0  0.44919E+00  0.0  0.94116E+00  0.70000E+00
  0.65024E+00  0.49602E+00  0.00000E+00  0.0  0.0  0.0  0.53611E+00  0.0  0.97884E+00  0.65000E+00
  0.64644E+00  0.49602E+00  0.00000E+00  0.0  0.0  0.0  0.58368E+00  0.0  0.99973E+00  0.60000E+00
  0.64264E+00  0.49602E+00  0.00000E+00  0.0  0.0  0.0  0.60398E+00  0.0  0.10087E+01  0.55000E+00
  0.63884E+00  0.49602E+00  0.00000E+00  0.0  0.0  0.0  0.61592E+00  0.0  0.10140E+01  0.50000E+00
  0.63504E+00  0.49602E+00  0.00000E+00  0.0  0.0  0.0  0.62973E+00  0.0  0.10202E+01  0.45000E+00
  0.63123E+00  0.49602E+00  0.00000E+00  0.0  0.0  0.0  0.64834E+00  0.0  0.10285E+01  0.40000E+00
  0.62743E+00  0.49602E+00  0.00000E+00  0.0  0.0  0.0  0.66068E+00  0.0  0.10340E+01  0.35000E+00
  0.62363E+00  0.49602E+00  0.00000E+00  0.0  0.0  0.0  0.63513E+00  0.0  0.10226E+01  0.30000E+00
  0.61983E+00  0.49602E+00  0.00000E+00  0.0  0.0  0.0  0.52769E+00  0.0  0.97516E+00  0.25000E+00
  0.61603E+00  0.49602E+00  0.00000E+00  0.0  0.0  0.0  0.93176E+00  0.0  0.11609E+01  0.20000E+00
  0.61223E+00  0.49602E+00  0.00000E+00  0.0  0.0  0.0  0.10576E+01  0.0  0.12242E+01  0.15000E+00
  0.60843E+00  0.49602E+00  0.00000E+00  0.0  0.0  0.0  0.10878E+01  0.0  0.12399E+01  0.10000E+00
  0.60463E+00  0.49602E+00  0.00000E+00  0.0  0.0  0.0  0.93553E+00  0.0  0.11628E+01  0.50000E-01
  0.60235E+00  0.49602E+00  0.00000E+00  0.0  0.0  0.0  0.41864E+00  0.0  0.92805E+00  0.20000E-01
  0.60159E+00  0.49602E+00  0.00000E+00  0.0  0.0  0.0 -0.41966E-01  0.0  0.73444E+00  0.10000E-01
  0.60083E+00  0.49602E+00  0.00000E+00  0.0  0.0  0.0 -0.83361E+00  0.0  0.36061E+00  0.00000E+00
