TITLE= "F6 tests at ONERA S2MA W.T. August 1990 lot  183 Mach  0.7510 Incidence  1.003 CL 0.4981 - F6 + long nacelles (pos. 1)"
VARIABLES= "X", "Y", "Z", "U", "V", "W", "-Cp", "Pi", "Mach", "X/C"
ZONE T="wing section 1 y/b 0.15", I=   32, J=    1, K=    1, F=POINT
  0.40264E+00  0.08785E+00  0.00000E+00  0.0  0.0  0.0 -0.87913E+00  0.0  0.33160E+00  0.00000E+00
  0.40817E+00  0.08785E+00  0.00000E+00  0.0  0.0  0.0 -0.32992E+00  0.0  0.61051E+00  0.30000E-01
  0.41186E+00  0.08785E+00  0.00000E+00  0.0  0.0  0.0 -0.11142E+00  0.0  0.70426E+00  0.50000E-01
  0.42108E+00  0.08785E+00  0.00000E+00  0.0  0.0  0.0  0.10377E+00  0.0  0.79429E+00  0.10000E+00
  0.43953E+00  0.08785E+00  0.00000E+00  0.0  0.0  0.0  0.23262E+00  0.0  0.84810E+00  0.20000E+00
  0.45798E+00  0.08785E+00  0.00000E+00  0.0  0.0  0.0  0.31566E+00  0.0  0.88299E+00  0.30000E+00
  0.47643E+00  0.08785E+00  0.00000E+00  0.0  0.0  0.0  0.35353E+00  0.0  0.89899E+00  0.40000E+00
  0.51332E+00  0.08785E+00  0.00000E+00  0.0  0.0  0.0  0.21755E+00  0.0  0.84179E+00  0.60000E+00
  0.53177E+00  0.08785E+00  0.00000E+00  0.0  0.0  0.0  0.30471E-02  0.0  0.75227E+00  0.70000E+00
  0.55022E+00  0.08785E+00  0.00000E+00  0.0  0.0  0.0 -0.18054E+00  0.0  0.67499E+00  0.80000E+00
  0.56866E+00  0.08785E+00  0.00000E+00  0.0  0.0  0.0 -0.22225E+00  0.0  0.65718E+00  0.90000E+00
  0.57789E+00  0.08785E+00  0.00000E+00  0.0  0.0  0.0 -0.19769E+00  0.0  0.66769E+00  0.95000E+00
  0.58711E+00  0.08785E+00  0.00000E+00  0.0  0.0  0.0 -0.13274E+00  0.0  0.69526E+00  0.10000E+01
  0.57789E+00  0.08785E+00  0.00000E+00  0.0  0.0  0.0  0.50168E-01  0.0  0.77194E+00  0.95000E+00
  0.56866E+00  0.08785E+00  0.00000E+00  0.0  0.0  0.0  0.13921E+00  0.0  0.80907E+00  0.90000E+00
  0.55022E+00  0.08785E+00  0.00000E+00  0.0  0.0  0.0  0.23739E+00  0.0  0.85010E+00  0.80000E+00
  0.53177E+00  0.08785E+00  0.00000E+00  0.0  0.0  0.0  0.35392E+00  0.0  0.89916E+00  0.70000E+00
  0.52254E+00  0.08785E+00  0.00000E+00  0.0  0.0  0.0  0.42174E+00  0.0  0.92801E+00  0.65000E+00
  0.51332E+00  0.08785E+00  0.00000E+00  0.0  0.0  0.0  0.49017E+00  0.0  0.95741E+00  0.60000E+00
  0.50410E+00  0.08785E+00  0.00000E+00  0.0  0.0  0.0  0.52530E+00  0.0  0.97264E+00  0.55000E+00
  0.49487E+00  0.08785E+00  0.00000E+00  0.0  0.0  0.0  0.57594E+00  0.0  0.99478E+00  0.50000E+00
  0.48565E+00  0.08785E+00  0.00000E+00  0.0  0.0  0.0  0.56045E+00  0.0  0.98798E+00  0.45000E+00
  0.47643E+00  0.08785E+00  0.00000E+00  0.0  0.0  0.0  0.62359E+00  0.0  0.10158E+01  0.40000E+00
  0.46720E+00  0.08785E+00  0.00000E+00  0.0  0.0  0.0  0.88848E+00  0.0  0.11379E+01  0.35000E+00
  0.44876E+00  0.08785E+00  0.00000E+00  0.0  0.0  0.0  0.98461E+00  0.0  0.11850E+01  0.25000E+00
  0.43953E+00  0.08785E+00  0.00000E+00  0.0  0.0  0.0  0.97212E+00  0.0  0.11788E+01  0.20000E+00
  0.43031E+00  0.08785E+00  0.00000E+00  0.0  0.0  0.0  0.95468E+00  0.0  0.11701E+01  0.15000E+00
  0.42108E+00  0.08785E+00  0.00000E+00  0.0  0.0  0.0  0.97201E+00  0.0  0.11787E+01  0.10000E+00
  0.41186E+00  0.08785E+00  0.00000E+00  0.0  0.0  0.0  0.92432E+00  0.0  0.11553E+01  0.50000E-01
  0.40817E+00  0.08785E+00  0.00000E+00  0.0  0.0  0.0  0.68929E+00  0.0  0.10453E+01  0.30000E-01
  0.40633E+00  0.08785E+00  0.00000E+00  0.0  0.0  0.0  0.42932E+00  0.0  0.93125E+00  0.20000E-01
  0.40448E+00  0.08785E+00  0.00000E+00  0.0  0.0  0.0  0.22836E-01  0.0  0.76054E+00  0.10000E-01
ZONE T="wing section 2 y/b 0.239", I=   33, J=    1, K=    1, F=POINT
  0.41858E+00  0.13987E+00  0.00000E+00  0.0  0.0  0.0 -0.72233E+00  0.0  0.42321E+00  0.00000E+00
  0.42026E+00  0.13987E+00  0.00000E+00  0.0  0.0  0.0 -0.57596E+00  0.0  0.49763E+00  0.10000E-01
  0.42700E+00  0.13987E+00  0.00000E+00  0.0  0.0  0.0 -0.29362E-01  0.0  0.73872E+00  0.50000E-01
  0.43543E+00  0.13987E+00  0.00000E+00  0.0  0.0  0.0  0.23513E+00  0.0  0.84915E+00  0.10000E+00
  0.45228E+00  0.13987E+00  0.00000E+00  0.0  0.0  0.0  0.43072E+00  0.0  0.93184E+00  0.20000E+00
  0.46914E+00  0.13987E+00  0.00000E+00  0.0  0.0  0.0  0.53829E+00  0.0  0.97830E+00  0.30000E+00
  0.48599E+00  0.13987E+00  0.00000E+00  0.0  0.0  0.0  0.44516E+00  0.0  0.93803E+00  0.40000E+00
  0.50284E+00  0.13987E+00  0.00000E+00  0.0  0.0  0.0  0.32994E+00  0.0  0.88901E+00  0.50000E+00
  0.51970E+00  0.13987E+00  0.00000E+00  0.0  0.0  0.0  0.14062E+00  0.0  0.80966E+00  0.60000E+00
  0.53655E+00  0.13987E+00  0.00000E+00  0.0  0.0  0.0 -0.62605E-01  0.0  0.72479E+00  0.70000E+00
  0.55340E+00  0.13987E+00  0.00000E+00  0.0  0.0  0.0 -0.24682E+00  0.0  0.64663E+00  0.80000E+00
  0.57026E+00  0.13987E+00  0.00000E+00  0.0  0.0  0.0 -0.28482E+00  0.0  0.63020E+00  0.90000E+00
  0.57868E+00  0.13987E+00  0.00000E+00  0.0  0.0  0.0 -0.26250E+00  0.0  0.63986E+00  0.95000E+00
  0.58711E+00  0.13987E+00  0.00000E+00  0.0  0.0  0.0 -0.13274E+00  0.0  0.69526E+00  0.10000E+01
  0.57868E+00  0.13987E+00  0.00000E+00  0.0  0.0  0.0 -0.46752E-01  0.0  0.73144E+00  0.95000E+00
  0.57026E+00  0.13987E+00  0.00000E+00  0.0  0.0  0.0  0.81475E-01  0.0  0.78500E+00  0.90000E+00
  0.55340E+00  0.13987E+00  0.00000E+00  0.0  0.0  0.0  0.26933E+00  0.0  0.86349E+00  0.80000E+00
  0.53655E+00  0.13987E+00  0.00000E+00  0.0  0.0  0.0  0.40541E+00  0.0  0.92103E+00  0.70000E+00
  0.52812E+00  0.13987E+00  0.00000E+00  0.0  0.0  0.0  0.47244E+00  0.0  0.94976E+00  0.65000E+00
  0.51970E+00  0.13987E+00  0.00000E+00  0.0  0.0  0.0  0.52117E+00  0.0  0.97085E+00  0.60000E+00
  0.51127E+00  0.13987E+00  0.00000E+00  0.0  0.0  0.0  0.54063E+00  0.0  0.97932E+00  0.55000E+00
  0.50284E+00  0.13987E+00  0.00000E+00  0.0  0.0  0.0  0.54357E+00  0.0  0.98060E+00  0.50000E+00
  0.49442E+00  0.13987E+00  0.00000E+00  0.0  0.0  0.0  0.54791E+00  0.0  0.98250E+00  0.45000E+00
  0.48599E+00  0.13987E+00  0.00000E+00  0.0  0.0  0.0  0.54512E+00  0.0  0.98128E+00  0.40000E+00
  0.47756E+00  0.13987E+00  0.00000E+00  0.0  0.0  0.0  0.55792E+00  0.0  0.98688E+00  0.35000E+00
  0.46914E+00  0.13987E+00  0.00000E+00  0.0  0.0  0.0  0.98560E+00  0.0  0.11855E+01  0.30000E+00
  0.46071E+00  0.13987E+00  0.00000E+00  0.0  0.0  0.0  0.10793E+01  0.0  0.12332E+01  0.25000E+00
  0.45228E+00  0.13987E+00  0.00000E+00  0.0  0.0  0.0  0.13169E+01  0.0  0.13645E+01  0.20000E+00
  0.44386E+00  0.13987E+00  0.00000E+00  0.0  0.0  0.0  0.14363E+01  0.0  0.14379E+01  0.15000E+00
  0.43543E+00  0.13987E+00  0.00000E+00  0.0  0.0  0.0  0.14401E+01  0.0  0.14403E+01  0.10000E+00
  0.42700E+00  0.13987E+00  0.00000E+00  0.0  0.0  0.0  0.12793E+01  0.0  0.13425E+01  0.50000E-01
  0.42363E+00  0.13987E+00  0.00000E+00  0.0  0.0  0.0  0.87936E+00  0.0  0.11336E+01  0.30000E-01
  0.42195E+00  0.13987E+00  0.00000E+00  0.0  0.0  0.0  0.63768E+00  0.0  0.10221E+01  0.20000E-01
ZONE T="wing section 3 y/b 0.331", I=   33, J=    1, K=    1, F=POINT
  0.44655E+00  0.19453E+00  0.00000E+00  0.0  0.0  0.0 -0.63810E+00  0.0  0.46696E+00  0.00000E+00
  0.44795E+00  0.19453E+00  0.00000E+00  0.0  0.0  0.0 -0.58439E+00  0.0  0.49354E+00  0.10000E-01
  0.45076E+00  0.19453E+00  0.00000E+00  0.0  0.0  0.0 -0.26527E+00  0.0  0.63867E+00  0.30000E-01
  0.45357E+00  0.19453E+00  0.00000E+00  0.0  0.0  0.0  0.23118E-01  0.0  0.76066E+00  0.50000E-01
  0.47466E+00  0.19453E+00  0.00000E+00  0.0  0.0  0.0  0.11145E+01  0.0  0.12516E+01  0.20000E+00
  0.48871E+00  0.19453E+00  0.00000E+00  0.0  0.0  0.0  0.44697E+00  0.0  0.93881E+00  0.30000E+00
  0.50277E+00  0.19453E+00  0.00000E+00  0.0  0.0  0.0  0.27365E+00  0.0  0.86531E+00  0.40000E+00
  0.51683E+00  0.19453E+00  0.00000E+00  0.0  0.0  0.0  0.11039E+00  0.0  0.79705E+00  0.50000E+00
  0.53088E+00  0.19453E+00  0.00000E+00  0.0  0.0  0.0 -0.90972E-02  0.0  0.74720E+00  0.60000E+00
  0.54494E+00  0.19453E+00  0.00000E+00  0.0  0.0  0.0 -0.13498E+00  0.0  0.69431E+00  0.70000E+00
  0.55900E+00  0.19453E+00  0.00000E+00  0.0  0.0  0.0 -0.24924E+00  0.0  0.64559E+00  0.80000E+00
  0.57305E+00  0.19453E+00  0.00000E+00  0.0  0.0  0.0 -0.28707E+00  0.0  0.62922E+00  0.90000E+00
  0.58008E+00  0.19453E+00  0.00000E+00  0.0  0.0  0.0 -0.26623E+00  0.0  0.63825E+00  0.95000E+00
  0.58711E+00  0.19453E+00  0.00000E+00  0.0  0.0  0.0 -0.12099E+00  0.0  0.70023E+00  0.10000E+01
  0.58008E+00  0.19453E+00  0.00000E+00  0.0  0.0  0.0 -0.50031E-01  0.0  0.73006E+00  0.95000E+00
  0.57305E+00  0.19453E+00  0.00000E+00  0.0  0.0  0.0  0.50875E-01  0.0  0.77224E+00  0.90000E+00
  0.55900E+00  0.19453E+00  0.00000E+00  0.0  0.0  0.0  0.27318E+00  0.0  0.86511E+00  0.80000E+00
  0.54494E+00  0.19453E+00  0.00000E+00  0.0  0.0  0.0  0.47702E+00  0.0  0.95173E+00  0.70000E+00
  0.53791E+00  0.19453E+00  0.00000E+00  0.0  0.0  0.0  0.56653E+00  0.0  0.99065E+00  0.65000E+00
  0.53088E+00  0.19453E+00  0.00000E+00  0.0  0.0  0.0  0.62106E+00  0.0  0.10147E+01  0.60000E+00
  0.52386E+00  0.19453E+00  0.00000E+00  0.0  0.0  0.0  0.61936E+00  0.0  0.10140E+01  0.55000E+00
  0.51683E+00  0.19453E+00  0.00000E+00  0.0  0.0  0.0  0.63120E+00  0.0  0.10192E+01  0.50000E+00
  0.50980E+00  0.19453E+00  0.00000E+00  0.0  0.0  0.0  0.61854E+00  0.0  0.10136E+01  0.45000E+00
  0.50277E+00  0.19453E+00  0.00000E+00  0.0  0.0  0.0  0.57897E+00  0.0  0.99611E+00  0.40000E+00
  0.49574E+00  0.19453E+00  0.00000E+00  0.0  0.0  0.0  0.53859E+00  0.0  0.97843E+00  0.35000E+00
  0.48871E+00  0.19453E+00  0.00000E+00  0.0  0.0  0.0  0.61146E+00  0.0  0.10105E+01  0.30000E+00
  0.48169E+00  0.19453E+00  0.00000E+00  0.0  0.0  0.0  0.12251E+01  0.0  0.13117E+01  0.25000E+00
  0.47466E+00  0.19453E+00  0.00000E+00  0.0  0.0  0.0  0.12822E+01  0.0  0.13442E+01  0.20000E+00
  0.46763E+00  0.19453E+00  0.00000E+00  0.0  0.0  0.0  0.13305E+01  0.0  0.13726E+01  0.15000E+00
  0.46060E+00  0.19453E+00  0.00000E+00  0.0  0.0  0.0  0.13945E+01  0.0  0.14115E+01  0.10000E+00
  0.45357E+00  0.19453E+00  0.00000E+00  0.0  0.0  0.0  0.12432E+01  0.0  0.13219E+01  0.50000E-01
  0.44936E+00  0.19453E+00  0.00000E+00  0.0  0.0  0.0  0.69816E+00  0.0  0.10493E+01  0.20000E-01
  0.44795E+00  0.19453E+00  0.00000E+00  0.0  0.0  0.0  0.38010E+00  0.0  0.91026E+00  0.10000E-01
ZONE T="wing section 4 y/b 0.377", I=   32, J=    1, K=    1, F=POINT
  0.46038E+00  0.22156E+00  0.00000E+00  0.0  0.0  0.0 -0.85696E+00  0.0  0.34567E+00  0.00000E+00
  0.46165E+00  0.22156E+00  0.00000E+00  0.0  0.0  0.0 -0.14795E+00  0.0  0.68883E+00  0.10000E-01
  0.46418E+00  0.22156E+00  0.00000E+00  0.0  0.0  0.0  0.15220E+00  0.0  0.81449E+00  0.30000E-01
  0.46672E+00  0.22156E+00  0.00000E+00  0.0  0.0  0.0  0.21191E+00  0.0  0.83943E+00  0.50000E-01
  0.47305E+00  0.22156E+00  0.00000E+00  0.0  0.0  0.0  0.19558E+00  0.0  0.83260E+00  0.10000E+00
  0.48573E+00  0.22156E+00  0.00000E+00  0.0  0.0  0.0  0.22622E+00  0.0  0.84542E+00  0.20000E+00
  0.49840E+00  0.22156E+00  0.00000E+00  0.0  0.0  0.0  0.28595E+00  0.0  0.87048E+00  0.30000E+00
  0.51107E+00  0.22156E+00  0.00000E+00  0.0  0.0  0.0  0.25362E+00  0.0  0.85690E+00  0.40000E+00
  0.52374E+00  0.22156E+00  0.00000E+00  0.0  0.0  0.0  0.13706E+00  0.0  0.80817E+00  0.50000E+00
  0.53642E+00  0.22156E+00  0.00000E+00  0.0  0.0  0.0  0.10595E-01  0.0  0.75543E+00  0.60000E+00
  0.54909E+00  0.22156E+00  0.00000E+00  0.0  0.0  0.0 -0.12085E+00  0.0  0.70028E+00  0.70000E+00
  0.56176E+00  0.22156E+00  0.00000E+00  0.0  0.0  0.0 -0.28538E+00  0.0  0.62996E+00  0.80000E+00
  0.57444E+00  0.22156E+00  0.00000E+00  0.0  0.0  0.0 -0.32138E+00  0.0  0.61426E+00  0.90000E+00
  0.58077E+00  0.22156E+00  0.00000E+00  0.0  0.0  0.0 -0.28212E+00  0.0  0.63137E+00  0.95000E+00
  0.58711E+00  0.22156E+00  0.00000E+00  0.0  0.0  0.0 -0.90178E-01  0.0  0.71321E+00  0.10000E+01
  0.57444E+00  0.22156E+00  0.00000E+00  0.0  0.0  0.0  0.66429E-01  0.0  0.77872E+00  0.90000E+00
  0.56176E+00  0.22156E+00  0.00000E+00  0.0  0.0  0.0  0.31000E+00  0.0  0.88060E+00  0.80000E+00
  0.54909E+00  0.22156E+00  0.00000E+00  0.0  0.0  0.0  0.54412E+00  0.0  0.98084E+00  0.70000E+00
  0.54275E+00  0.22156E+00  0.00000E+00  0.0  0.0  0.0  0.63971E+00  0.0  0.10230E+01  0.65000E+00
  0.53642E+00  0.22156E+00  0.00000E+00  0.0  0.0  0.0  0.69180E+00  0.0  0.10464E+01  0.60000E+00
  0.53008E+00  0.22156E+00  0.00000E+00  0.0  0.0  0.0  0.68852E+00  0.0  0.10449E+01  0.55000E+00
  0.52374E+00  0.22156E+00  0.00000E+00  0.0  0.0  0.0  0.69184E+00  0.0  0.10464E+01  0.50000E+00
  0.51741E+00  0.22156E+00  0.00000E+00  0.0  0.0  0.0  0.68541E+00  0.0  0.10435E+01  0.45000E+00
  0.51107E+00  0.22156E+00  0.00000E+00  0.0  0.0  0.0  0.64165E+00  0.0  0.10239E+01  0.40000E+00
  0.50474E+00  0.22156E+00  0.00000E+00  0.0  0.0  0.0  0.57663E+00  0.0  0.99508E+00  0.35000E+00
  0.49840E+00  0.22156E+00  0.00000E+00  0.0  0.0  0.0  0.67199E+00  0.0  0.10375E+01  0.30000E+00
  0.49206E+00  0.22156E+00  0.00000E+00  0.0  0.0  0.0  0.11607E+01  0.0  0.12763E+01  0.25000E+00
  0.48573E+00  0.22156E+00  0.00000E+00  0.0  0.0  0.0  0.11429E+01  0.0  0.12667E+01  0.20000E+00
  0.47939E+00  0.22156E+00  0.00000E+00  0.0  0.0  0.0  0.10792E+01  0.0  0.12331E+01  0.15000E+00
  0.47305E+00  0.22156E+00  0.00000E+00  0.0  0.0  0.0  0.10576E+01  0.0  0.12219E+01  0.10000E+00
  0.46672E+00  0.22156E+00  0.00000E+00  0.0  0.0  0.0  0.81004E+00  0.0  0.11007E+01  0.50000E-01
  0.46291E+00  0.22156E+00  0.00000E+00  0.0  0.0  0.0  0.20783E+00  0.0  0.83772E+00  0.20000E-01
ZONE T="wing section 5 y/b 0.411", I=   32, J=    1, K=    1, F=POINT
  0.47000E+00  0.24037E+00  0.00000E+00  0.0  0.0  0.0 -0.87679E+00  0.0  0.33311E+00  0.00000E+00
  0.47119E+00  0.24037E+00  0.00000E+00  0.0  0.0  0.0 -0.24944E+00  0.0  0.64550E+00  0.10000E-01
  0.47357E+00  0.24037E+00  0.00000E+00  0.0  0.0  0.0  0.32626E-01  0.0  0.76462E+00  0.30000E-01
  0.47595E+00  0.24037E+00  0.00000E+00  0.0  0.0  0.0  0.91446E-01  0.0  0.78915E+00  0.50000E-01
  0.48189E+00  0.24037E+00  0.00000E+00  0.0  0.0  0.0  0.14262E+00  0.0  0.81049E+00  0.10000E+00
  0.49379E+00  0.24037E+00  0.00000E+00  0.0  0.0  0.0  0.21911E+00  0.0  0.84244E+00  0.20000E+00
  0.50568E+00  0.24037E+00  0.00000E+00  0.0  0.0  0.0  0.27807E+00  0.0  0.86717E+00  0.30000E+00
  0.51757E+00  0.24037E+00  0.00000E+00  0.0  0.0  0.0  0.22610E+00  0.0  0.84537E+00  0.40000E+00
  0.52946E+00  0.24037E+00  0.00000E+00  0.0  0.0  0.0  0.15099E+00  0.0  0.81399E+00  0.50000E+00
  0.54135E+00  0.24037E+00  0.00000E+00  0.0  0.0  0.0  0.41386E-01  0.0  0.76828E+00  0.60000E+00
  0.55325E+00  0.24037E+00  0.00000E+00  0.0  0.0  0.0 -0.12372E+00  0.0  0.69907E+00  0.70000E+00
  0.56514E+00  0.24037E+00  0.00000E+00  0.0  0.0  0.0 -0.29896E+00  0.0  0.62405E+00  0.80000E+00
  0.57703E+00  0.24037E+00  0.00000E+00  0.0  0.0  0.0 -0.32123E+00  0.0  0.61432E+00  0.90000E+00
  0.58892E+00  0.24037E+00  0.00000E+00  0.0  0.0  0.0 -0.36146E-01  0.0  0.73588E+00  0.10000E+01
  0.58297E+00  0.24037E+00  0.00000E+00  0.0  0.0  0.0  0.23554E-02  0.0  0.75198E+00  0.95000E+00
  0.57703E+00  0.24037E+00  0.00000E+00  0.0  0.0  0.0  0.89464E-01  0.0  0.78833E+00  0.90000E+00
  0.56514E+00  0.24037E+00  0.00000E+00  0.0  0.0  0.0  0.31202E+00  0.0  0.88146E+00  0.80000E+00
  0.55325E+00  0.24037E+00  0.00000E+00  0.0  0.0  0.0  0.56947E+00  0.0  0.99194E+00  0.70000E+00
  0.54730E+00  0.24037E+00  0.00000E+00  0.0  0.0  0.0  0.68136E+00  0.0  0.10417E+01  0.65000E+00
  0.54135E+00  0.24037E+00  0.00000E+00  0.0  0.0  0.0  0.69933E+00  0.0  0.10498E+01  0.60000E+00
  0.53541E+00  0.24037E+00  0.00000E+00  0.0  0.0  0.0  0.73525E+00  0.0  0.10662E+01  0.55000E+00
  0.52946E+00  0.24037E+00  0.00000E+00  0.0  0.0  0.0  0.71158E+00  0.0  0.10554E+01  0.50000E+00
  0.52352E+00  0.24037E+00  0.00000E+00  0.0  0.0  0.0  0.71330E+00  0.0  0.10561E+01  0.45000E+00
  0.51757E+00  0.24037E+00  0.00000E+00  0.0  0.0  0.0  0.67290E+00  0.0  0.10379E+01  0.40000E+00
  0.51162E+00  0.24037E+00  0.00000E+00  0.0  0.0  0.0  0.61186E+00  0.0  0.10106E+01  0.35000E+00
  0.50568E+00  0.24037E+00  0.00000E+00  0.0  0.0  0.0  0.88625E+00  0.0  0.11369E+01  0.30000E+00
  0.49973E+00  0.24037E+00  0.00000E+00  0.0  0.0  0.0  0.10352E+01  0.0  0.12105E+01  0.25000E+00
  0.49379E+00  0.24037E+00  0.00000E+00  0.0  0.0  0.0  0.10338E+01  0.0  0.12098E+01  0.20000E+00
  0.48784E+00  0.24037E+00  0.00000E+00  0.0  0.0  0.0  0.10072E+01  0.0  0.11963E+01  0.15000E+00
  0.48189E+00  0.24037E+00  0.00000E+00  0.0  0.0  0.0  0.99341E+00  0.0  0.11894E+01  0.10000E+00
  0.47238E+00  0.24037E+00  0.00000E+00  0.0  0.0  0.0  0.20623E+00  0.0  0.83705E+00  0.20000E-01
  0.47119E+00  0.24037E+00  0.00000E+00  0.0  0.0  0.0 -0.24115E+00  0.0  0.64907E+00  0.10000E-01
ZONE T="wing section 6 y/b 0.514", I=   32, J=    1, K=    1, F=POINT
  0.50098E+00  0.30090E+00  0.00000E+00  0.0  0.0  0.0 -0.85779E+00  0.0  0.34515E+00  0.00000E+00
  0.50207E+00  0.30090E+00  0.00000E+00  0.0  0.0  0.0 -0.52894E+00  0.0  0.52013E+00  0.10000E-01
  0.50642E+00  0.30090E+00  0.00000E+00  0.0  0.0  0.0 -0.86014E-01  0.0  0.71496E+00  0.50000E-01
  0.51186E+00  0.30090E+00  0.00000E+00  0.0  0.0  0.0  0.25525E-01  0.0  0.76166E+00  0.10000E+00
  0.52273E+00  0.30090E+00  0.00000E+00  0.0  0.0  0.0  0.14942E+00  0.0  0.81333E+00  0.20000E+00
  0.53361E+00  0.30090E+00  0.00000E+00  0.0  0.0  0.0  0.25778E+00  0.0  0.85864E+00  0.30000E+00
  0.54448E+00  0.30090E+00  0.00000E+00  0.0  0.0  0.0  0.24444E+00  0.0  0.85305E+00  0.40000E+00
  0.55536E+00  0.30090E+00  0.00000E+00  0.0  0.0  0.0  0.16434E+00  0.0  0.81956E+00  0.50000E+00
  0.56624E+00  0.30090E+00  0.00000E+00  0.0  0.0  0.0  0.45919E-01  0.0  0.77017E+00  0.60000E+00
  0.57711E+00  0.30090E+00  0.00000E+00  0.0  0.0  0.0 -0.11259E+00  0.0  0.70377E+00  0.70000E+00
  0.58799E+00  0.30090E+00  0.00000E+00  0.0  0.0  0.0 -0.26459E+00  0.0  0.63896E+00  0.80000E+00
  0.59886E+00  0.30090E+00  0.00000E+00  0.0  0.0  0.0 -0.28407E+00  0.0  0.63052E+00  0.90000E+00
  0.60430E+00  0.30090E+00  0.00000E+00  0.0  0.0  0.0 -0.23346E+00  0.0  0.65237E+00  0.95000E+00
  0.60974E+00  0.30090E+00  0.00000E+00  0.0  0.0  0.0 -0.53669E-01  0.0  0.72854E+00  0.10000E+01
  0.60430E+00  0.30090E+00  0.00000E+00  0.0  0.0  0.0 -0.13428E-01  0.0  0.74539E+00  0.95000E+00
  0.59886E+00  0.30090E+00  0.00000E+00  0.0  0.0  0.0  0.63636E-01  0.0  0.77756E+00  0.90000E+00
  0.58799E+00  0.30090E+00  0.00000E+00  0.0  0.0  0.0  0.26730E+00  0.0  0.86264E+00  0.80000E+00
  0.57711E+00  0.30090E+00  0.00000E+00  0.0  0.0  0.0  0.49498E+00  0.0  0.95949E+00  0.70000E+00
  0.57167E+00  0.30090E+00  0.00000E+00  0.0  0.0  0.0  0.59567E+00  0.0  0.10035E+01  0.65000E+00
  0.56624E+00  0.30090E+00  0.00000E+00  0.0  0.0  0.0  0.66625E+00  0.0  0.10349E+01  0.60000E+00
  0.56080E+00  0.30090E+00  0.00000E+00  0.0  0.0  0.0  0.69780E+00  0.0  0.10491E+01  0.55000E+00
  0.55536E+00  0.30090E+00  0.00000E+00  0.0  0.0  0.0  0.72697E+00  0.0  0.10624E+01  0.50000E+00
  0.54992E+00  0.30090E+00  0.00000E+00  0.0  0.0  0.0  0.72092E+00  0.0  0.10596E+01  0.45000E+00
  0.54448E+00  0.30090E+00  0.00000E+00  0.0  0.0  0.0  0.70506E+00  0.0  0.10524E+01  0.40000E+00
  0.53905E+00  0.30090E+00  0.00000E+00  0.0  0.0  0.0  0.68469E+00  0.0  0.10432E+01  0.35000E+00
  0.53361E+00  0.30090E+00  0.00000E+00  0.0  0.0  0.0  0.86624E+00  0.0  0.11273E+01  0.30000E+00
  0.52817E+00  0.30090E+00  0.00000E+00  0.0  0.0  0.0  0.97531E+00  0.0  0.11803E+01  0.25000E+00
  0.51186E+00  0.30090E+00  0.00000E+00  0.0  0.0  0.0  0.11099E+01  0.0  0.12492E+01  0.10000E+00
  0.50642E+00  0.30090E+00  0.00000E+00  0.0  0.0  0.0  0.10055E+01  0.0  0.11955E+01  0.50000E-01
  0.50424E+00  0.30090E+00  0.00000E+00  0.0  0.0  0.0  0.64592E+00  0.0  0.10258E+01  0.30000E-01
  0.50315E+00  0.30090E+00  0.00000E+00  0.0  0.0  0.0  0.43033E+00  0.0  0.93168E+00  0.20000E-01
  0.50207E+00  0.30090E+00  0.00000E+00  0.0  0.0  0.0 -0.95218E-01  0.0  0.71109E+00  0.10000E-01
ZONE T="wing section 7 y/b 0.638", I=   31, J=    1, K=    1, F=POINT
  0.53797E+00  0.37319E+00  0.00000E+00  0.0  0.0  0.0 -0.80145E+00  0.0  0.37907E+00  0.00000E+00
  0.53894E+00  0.37319E+00  0.00000E+00  0.0  0.0  0.0 -0.60664E+00  0.0  0.48263E+00  0.10000E-01
  0.54087E+00  0.37319E+00  0.00000E+00  0.0  0.0  0.0 -0.27809E+00  0.0  0.63312E+00  0.30000E-01
  0.54280E+00  0.37319E+00  0.00000E+00  0.0  0.0  0.0 -0.16702E+00  0.0  0.68074E+00  0.50000E-01
  0.54763E+00  0.37319E+00  0.00000E+00  0.0  0.0  0.0 -0.49789E-02  0.0  0.74892E+00  0.10000E+00
  0.55730E+00  0.37319E+00  0.00000E+00  0.0  0.0  0.0  0.13050E+00  0.0  0.80544E+00  0.20000E+00
  0.56696E+00  0.37319E+00  0.00000E+00  0.0  0.0  0.0  0.24421E+00  0.0  0.85295E+00  0.30000E+00
  0.57662E+00  0.37319E+00  0.00000E+00  0.0  0.0  0.0  0.24021E+00  0.0  0.85128E+00  0.40000E+00
  0.58629E+00  0.37319E+00  0.00000E+00  0.0  0.0  0.0  0.17129E+00  0.0  0.82246E+00  0.50000E+00
  0.59595E+00  0.37319E+00  0.00000E+00  0.0  0.0  0.0  0.52743E-01  0.0  0.77302E+00  0.60000E+00
  0.60561E+00  0.37319E+00  0.00000E+00  0.0  0.0  0.0 -0.10215E+00  0.0  0.70817E+00  0.70000E+00
  0.62494E+00  0.37319E+00  0.00000E+00  0.0  0.0  0.0 -0.26989E+00  0.0  0.63667E+00  0.90000E+00
  0.62977E+00  0.37319E+00  0.00000E+00  0.0  0.0  0.0 -0.22332E+00  0.0  0.65673E+00  0.95000E+00
  0.63460E+00  0.37319E+00  0.00000E+00  0.0  0.0  0.0 -0.56055E-01  0.0  0.72754E+00  0.10000E+01
  0.62977E+00  0.37319E+00  0.00000E+00  0.0  0.0  0.0 -0.70351E-02  0.0  0.74806E+00  0.95000E+00
  0.62494E+00  0.37319E+00  0.00000E+00  0.0  0.0  0.0  0.62255E-01  0.0  0.77698E+00  0.90000E+00
  0.61528E+00  0.37319E+00  0.00000E+00  0.0  0.0  0.0  0.25684E+00  0.0  0.85825E+00  0.80000E+00
  0.60561E+00  0.37319E+00  0.00000E+00  0.0  0.0  0.0  0.47734E+00  0.0  0.95187E+00  0.70000E+00
  0.59595E+00  0.37319E+00  0.00000E+00  0.0  0.0  0.0  0.58420E+00  0.0  0.99841E+00  0.60000E+00
  0.59112E+00  0.37319E+00  0.00000E+00  0.0  0.0  0.0  0.65767E+00  0.0  0.10310E+01  0.55000E+00
  0.58629E+00  0.37319E+00  0.00000E+00  0.0  0.0  0.0  0.67895E+00  0.0  0.10406E+01  0.50000E+00
  0.58146E+00  0.37319E+00  0.00000E+00  0.0  0.0  0.0  0.68577E+00  0.0  0.10437E+01  0.45000E+00
  0.57662E+00  0.37319E+00  0.00000E+00  0.0  0.0  0.0  0.70069E+00  0.0  0.10504E+01  0.40000E+00
  0.57179E+00  0.37319E+00  0.00000E+00  0.0  0.0  0.0  0.58420E+00  0.0  0.99841E+00  0.35000E+00
  0.56696E+00  0.37319E+00  0.00000E+00  0.0  0.0  0.0  0.65812E+00  0.0  0.10312E+01  0.30000E+00
  0.56213E+00  0.37319E+00  0.00000E+00  0.0  0.0  0.0  0.98814E+00  0.0  0.11867E+01  0.25000E+00
  0.55730E+00  0.37319E+00  0.00000E+00  0.0  0.0  0.0  0.11244E+01  0.0  0.12568E+01  0.20000E+00
  0.55247E+00  0.37319E+00  0.00000E+00  0.0  0.0  0.0  0.11500E+01  0.0  0.12705E+01  0.15000E+00
  0.54280E+00  0.37319E+00  0.00000E+00  0.0  0.0  0.0  0.10425E+01  0.0  0.12142E+01  0.50000E-01
  0.53990E+00  0.37319E+00  0.00000E+00  0.0  0.0  0.0  0.48848E+00  0.0  0.95668E+00  0.20000E-01
  0.53894E+00  0.37319E+00  0.00000E+00  0.0  0.0  0.0  0.30844E-01  0.0  0.76388E+00  0.10000E-01
ZONE T="wing section 8 y/b 0.847", I=   21, J=    1, K=    1, F=POINT
  0.67685E+00  0.49602E+00  0.00000E+00  0.0  0.0  0.0  0.36879E-01  0.0  0.76640E+00  0.10000E+01
  0.67305E+00  0.49602E+00  0.00000E+00  0.0  0.0  0.0 -0.25965E-01  0.0  0.74014E+00  0.95000E+00
  0.66925E+00  0.49602E+00  0.00000E+00  0.0  0.0  0.0  0.44951E-01  0.0  0.76977E+00  0.90000E+00
  0.66164E+00  0.49602E+00  0.00000E+00  0.0  0.0  0.0  0.23068E+00  0.0  0.84729E+00  0.80000E+00
  0.65404E+00  0.49602E+00  0.00000E+00  0.0  0.0  0.0  0.44756E+00  0.0  0.93906E+00  0.70000E+00
  0.65024E+00  0.49602E+00  0.00000E+00  0.0  0.0  0.0  0.53369E+00  0.0  0.97629E+00  0.65000E+00
  0.64644E+00  0.49602E+00  0.00000E+00  0.0  0.0  0.0  0.58263E+00  0.0  0.99772E+00  0.60000E+00
  0.64264E+00  0.49602E+00  0.00000E+00  0.0  0.0  0.0  0.60458E+00  0.0  0.10074E+01  0.55000E+00
  0.63884E+00  0.49602E+00  0.00000E+00  0.0  0.0  0.0  0.61821E+00  0.0  0.10134E+01  0.50000E+00
  0.63504E+00  0.49602E+00  0.00000E+00  0.0  0.0  0.0  0.62806E+00  0.0  0.10178E+01  0.45000E+00
  0.63123E+00  0.49602E+00  0.00000E+00  0.0  0.0  0.0  0.63955E+00  0.0  0.10229E+01  0.40000E+00
  0.62743E+00  0.49602E+00  0.00000E+00  0.0  0.0  0.0  0.62605E+00  0.0  0.10169E+01  0.35000E+00
  0.62363E+00  0.49602E+00  0.00000E+00  0.0  0.0  0.0  0.55145E+00  0.0  0.98405E+00  0.30000E+00
  0.61983E+00  0.49602E+00  0.00000E+00  0.0  0.0  0.0  0.95037E+00  0.0  0.11680E+01  0.25000E+00
  0.61603E+00  0.49602E+00  0.00000E+00  0.0  0.0  0.0  0.10756E+01  0.0  0.12313E+01  0.20000E+00
  0.61223E+00  0.49602E+00  0.00000E+00  0.0  0.0  0.0  0.11393E+01  0.0  0.12648E+01  0.15000E+00
  0.60843E+00  0.49602E+00  0.00000E+00  0.0  0.0  0.0  0.11545E+01  0.0  0.12729E+01  0.10000E+00
  0.60463E+00  0.49602E+00  0.00000E+00  0.0  0.0  0.0  0.10112E+01  0.0  0.11983E+01  0.50000E-01
  0.60235E+00  0.49602E+00  0.00000E+00  0.0  0.0  0.0  0.48659E+00  0.0  0.95586E+00  0.20000E-01
  0.60159E+00  0.49602E+00  0.00000E+00  0.0  0.0  0.0  0.23421E-01  0.0  0.76078E+00  0.10000E-01
  0.60083E+00  0.49602E+00  0.00000E+00  0.0  0.0  0.0 -0.81136E+00  0.0  0.37328E+00  0.00000E+00
ZONE T="nacelle section phi 60 degrees outboard side", I=   15, J=    1, K=    1, F=POINT
  0.36351E+00  0.20805E+00  0.00000E+00  0.0  0.0  0.0 -0.44063E+00  0.0  0.56106E+00  0.13900E+00
  0.35092E+00  0.20805E+00  0.00000E+00  0.0  0.0  0.0 -0.25413E+00  0.0  0.64348E+00  0.69500E-01
  0.34444E+00  0.20805E+00  0.00000E+00  0.0  0.0  0.0  0.12276E+00  0.0  0.80221E+00  0.33700E-01
  0.33995E+00  0.20805E+00  0.00000E+00  0.0  0.0  0.0 -0.46147E+00  0.0  0.55154E+00  0.83000E-02
  0.33833E+00  0.20805E+00  0.00000E+00  0.0  0.0  0.0 -0.10288E+01  0.0  0.21836E+00  0.00000E-00
  0.34138E+00  0.20805E+00  0.00000E+00  0.0  0.0  0.0  0.23041E+00  0.0  0.84717E+00  0.16700E-01
  0.34840E+00  0.20805E+00  0.00000E+00  0.0  0.0  0.0  0.34203E+00  0.0  0.89412E+00  0.55600E-01
  0.35830E+00  0.20805E+00  0.00000E+00  0.0  0.0  0.0  0.40700E+00  0.0  0.92171E+00  0.11120E+00
  0.37341E+00  0.20805E+00  0.00000E+00  0.0  0.0  0.0  0.36438E+00  0.0  0.90359E+00  0.19460E+00
  0.39338E+00  0.20805E+00  0.00000E+00  0.0  0.0  0.0  0.16093E+00  0.0  0.81813E+00  0.30570E+00
  0.41838E+00  0.20805E+00  0.00000E+00  0.0  0.0  0.0  0.15601E+00  0.0  0.81608E+00  0.44470E+00
  0.44339E+00  0.20805E+00  0.00000E+00  0.0  0.0  0.0  0.10672E+00  0.0  0.79552E+00  0.58370E+00
  0.46839E+00  0.20805E+00  0.00000E+00  0.0  0.0  0.0 -0.42420E-02  0.0  0.74923E+00  0.72260E+00
  0.49340E+00  0.20805E+00  0.00000E+00  0.0  0.0  0.0  0.33864E-03  0.0  0.75114E+00  0.86160E+00
  0.51337E+00  0.20805E+00  0.00000E+00  0.0  0.0  0.0 -0.16273E-01  0.0  0.74420E+00  0.97280E+00
ZONE T="nacelle lower section phi 180 degrees", I=   14, J=    1, K=    1, F=POINT
  0.36351E+00  0.20805E+00  0.00000E+00  0.0  0.0  0.0 -0.41585E+00  0.0  0.57229E+00  0.13900E+00
  0.35092E+00  0.20805E+00  0.00000E+00  0.0  0.0  0.0 -0.21108E+00  0.0  0.66197E+00  0.69500E-01
  0.34444E+00  0.20805E+00  0.00000E+00  0.0  0.0  0.0  0.47716E+00  0.0  0.95179E+00  0.33700E-01
  0.33995E+00  0.20805E+00  0.00000E+00  0.0  0.0  0.0  0.76408E-02  0.0  0.75419E+00  0.83000E-02
  0.33833E+00  0.20805E+00  0.00000E+00  0.0  0.0  0.0 -0.11472E+01  0.0  0.26604E-01  0.00000E-00
  0.34138E+00  0.20805E+00  0.00000E+00  0.0  0.0  0.0 -0.13889E+00  0.0  0.69266E+00  0.16700E-01
  0.34840E+00  0.20805E+00  0.00000E+00  0.0  0.0  0.0  0.97496E-01  0.0  0.79168E+00  0.55600E-01
  0.35830E+00  0.20805E+00  0.00000E+00  0.0  0.0  0.0  0.24172E+00  0.0  0.85191E+00  0.11120E+00
  0.37341E+00  0.20805E+00  0.00000E+00  0.0  0.0  0.0  0.30901E+00  0.0  0.88018E+00  0.19460E+00
  0.39338E+00  0.20805E+00  0.00000E+00  0.0  0.0  0.0  0.14400E+00  0.0  0.81107E+00  0.30570E+00
  0.41838E+00  0.20805E+00  0.00000E+00  0.0  0.0  0.0  0.18195E+00  0.0  0.82691E+00  0.44470E+00
  0.44339E+00  0.20805E+00  0.00000E+00  0.0  0.0  0.0  0.25530E+00  0.0  0.85760E+00  0.58370E+00
  0.46839E+00  0.20805E+00  0.00000E+00  0.0  0.0  0.0  0.98186E-01  0.0  0.79196E+00  0.72260E+00
  0.49340E+00  0.20805E+00  0.00000E+00  0.0  0.0  0.0  0.27022E-01  0.0  0.76228E+00  0.86160E+00
ZONE T="nacelle section phi 300 degrees inboard side", I=   15, J=    1, K=    1, F=POINT
  0.51337E+00  0.20805E+00  0.00000E+00  0.0  0.0  0.0 -0.18212E+00  0.0  0.67432E+00  0.97280E+00
  0.36351E+00  0.20805E+00  0.00000E+00  0.0  0.0  0.0 -0.43932E+00  0.0  0.56166E+00  0.13900E+00
  0.35092E+00  0.20805E+00  0.00000E+00  0.0  0.0  0.0 -0.31228E+00  0.0  0.61823E+00  0.69500E-01
  0.34444E+00  0.20805E+00  0.00000E+00  0.0  0.0  0.0  0.13902E+00  0.0  0.80899E+00  0.33700E-01
  0.33995E+00  0.20805E+00  0.00000E+00  0.0  0.0  0.0 -0.37080E+00  0.0  0.59245E+00  0.83000E-02
  0.33833E+00  0.20805E+00  0.00000E+00  0.0  0.0  0.0 -0.10863E+01  0.0  0.15689E+00  0.00000E-00
  0.34138E+00  0.20805E+00  0.00000E+00  0.0  0.0  0.0  0.15277E+00  0.0  0.81472E+00  0.16700E-01
  0.34840E+00  0.20805E+00  0.00000E+00  0.0  0.0  0.0  0.24329E+00  0.0  0.85257E+00  0.55600E-01
  0.35830E+00  0.20805E+00  0.00000E+00  0.0  0.0  0.0  0.27970E+00  0.0  0.86785E+00  0.11120E+00
  0.37341E+00  0.20805E+00  0.00000E+00  0.0  0.0  0.0  0.22915E+00  0.0  0.84664E+00  0.19460E+00
  0.39338E+00  0.20805E+00  0.00000E+00  0.0  0.0  0.0 -0.14023E-01  0.0  0.74514E+00  0.30570E+00
  0.41838E+00  0.20805E+00  0.00000E+00  0.0  0.0  0.0 -0.37726E-01  0.0  0.73522E+00  0.44470E+00
  0.46839E+00  0.20805E+00  0.00000E+00  0.0  0.0  0.0  0.49476E+00  0.0  0.95939E+00  0.72260E+00
  0.49340E+00  0.20805E+00  0.00000E+00  0.0  0.0  0.0  0.20866E+00  0.0  0.83807E+00  0.86160E+00
  0.51337E+00  0.20805E+00  0.00000E+00  0.0  0.0  0.0  0.19030E-01  0.0  0.75895E+00  0.97280E+00
ZONE T="pylone outboard side", I=    6, J=    1, K=    1, F=POINT
  0.51841E+00  0.20805E+00  0.00000E+00  0.0  0.0  0.0  0.76039E-01  0.0  0.78273E+00  1.00100E+00
  0.46354E+00  0.20805E+00  0.00000E+00  0.0  0.0  0.0  0.51661E-01  0.0  0.77256E+00  0.69540E+00