TITLE= "F6 tests at ONERA S2MA W.T. August 1990 lot  275 Mach  0.7516 Incidence  1.230 CL 0.5979 - F6 WB"
VARIABLES= "X", "Y", "Z", "U", "V", "W", "-Cp", "Pi", "Mach", "X/C"
ZONE T="wing section 1 y/b 0.15", I=   32, J=    1, K=    1, F=POINT
  0.40264E+00  0.10872E+00  0.00000E+00  0.0  0.0  0.0 -0.86583E+00  0.0  0.34042E+00  0.00000E+00
  0.40817E+00  0.10872E+00  0.00000E+00  0.0  0.0  0.0 -0.40761E+00  0.0  0.57643E+00  0.30000E-01
  0.41186E+00  0.10872E+00  0.00000E+00  0.0  0.0  0.0 -0.20564E+00  0.0  0.66478E+00  0.50000E-01
  0.42108E+00  0.10872E+00  0.00000E+00  0.0  0.0  0.0 -0.10291E-01  0.0  0.74726E+00  0.10000E+00
  0.43953E+00  0.10872E+00  0.00000E+00  0.0  0.0  0.0  0.11193E+00  0.0  0.79830E+00  0.20000E+00
  0.45798E+00  0.10872E+00  0.00000E+00  0.0  0.0  0.0  0.17466E+00  0.0  0.82449E+00  0.30000E+00
  0.47643E+00  0.10872E+00  0.00000E+00  0.0  0.0  0.0  0.22869E+00  0.0  0.84711E+00  0.40000E+00
  0.51332E+00  0.10872E+00  0.00000E+00  0.0  0.0  0.0  0.18454E+00  0.0  0.82862E+00  0.60000E+00
  0.53177E+00  0.10872E+00  0.00000E+00  0.0  0.0  0.0 -0.10666E-01  0.0  0.74710E+00  0.70000E+00
  0.55022E+00  0.10872E+00  0.00000E+00  0.0  0.0  0.0 -0.18885E+00  0.0  0.67195E+00  0.80000E+00
  0.56866E+00  0.10872E+00  0.00000E+00  0.0  0.0  0.0 -0.22153E+00  0.0  0.65797E+00  0.90000E+00
  0.57789E+00  0.10872E+00  0.00000E+00  0.0  0.0  0.0 -0.19340E+00  0.0  0.67001E+00  0.95000E+00
  0.58711E+00  0.10872E+00  0.00000E+00  0.0  0.0  0.0 -0.11276E+00  0.0  0.70422E+00  0.10000E+01
  0.57789E+00  0.10872E+00  0.00000E+00  0.0  0.0  0.0  0.61713E-01  0.0  0.77734E+00  0.95000E+00
  0.56866E+00  0.10872E+00  0.00000E+00  0.0  0.0  0.0  0.15218E+00  0.0  0.81510E+00  0.90000E+00
  0.55022E+00  0.10872E+00  0.00000E+00  0.0  0.0  0.0  0.25175E+00  0.0  0.85678E+00  0.80000E+00
  0.53177E+00  0.10872E+00  0.00000E+00  0.0  0.0  0.0  0.37618E+00  0.0  0.90932E+00  0.70000E+00
  0.52254E+00  0.10872E+00  0.00000E+00  0.0  0.0  0.0  0.44937E+00  0.0  0.94060E+00  0.65000E+00
  0.51332E+00  0.10872E+00  0.00000E+00  0.0  0.0  0.0  0.52098E+00  0.0  0.97157E+00  0.60000E+00
  0.50410E+00  0.10872E+00  0.00000E+00  0.0  0.0  0.0  0.56085E+00  0.0  0.98899E+00  0.55000E+00
  0.49487E+00  0.10872E+00  0.00000E+00  0.0  0.0  0.0  0.63371E+00  0.0  0.10212E+01  0.50000E+00
  0.48565E+00  0.10872E+00  0.00000E+00  0.0  0.0  0.0  0.60167E+00  0.0  0.10070E+01  0.45000E+00
  0.47643E+00  0.10872E+00  0.00000E+00  0.0  0.0  0.0  0.71319E+00  0.0  0.10570E+01  0.40000E+00
  0.46720E+00  0.10872E+00  0.00000E+00  0.0  0.0  0.0  0.90428E+00  0.0  0.11466E+01  0.35000E+00
  0.44876E+00  0.10872E+00  0.00000E+00  0.0  0.0  0.0  0.94978E+00  0.0  0.11688E+01  0.25000E+00
  0.43953E+00  0.10872E+00  0.00000E+00  0.0  0.0  0.0  0.95867E+00  0.0  0.11732E+01  0.20000E+00
  0.43031E+00  0.10872E+00  0.00000E+00  0.0  0.0  0.0  0.90940E+00  0.0  0.11491E+01  0.15000E+00
  0.42108E+00  0.10872E+00  0.00000E+00  0.0  0.0  0.0  0.96444E+00  0.0  0.11761E+01  0.10000E+00
  0.41186E+00  0.10872E+00  0.00000E+00  0.0  0.0  0.0  0.96451E+00  0.0  0.11761E+01  0.50000E-01
  0.40817E+00  0.10872E+00  0.00000E+00  0.0  0.0  0.0  0.71606E+00  0.0  0.10583E+01  0.30000E-01
  0.40633E+00  0.10872E+00  0.00000E+00  0.0  0.0  0.0  0.45794E+00  0.0  0.94429E+00  0.20000E-01
  0.40448E+00  0.10872E+00  0.00000E+00  0.0  0.0  0.0  0.55721E-01  0.0  0.77484E+00  0.10000E-01
ZONE T="wing section 2 y/b 0.239", I=   33, J=    1, K=    1, F=POINT
  0.41858E+00  0.13987E+00  0.00000E+00  0.0  0.0  0.0 -0.71707E+00  0.0  0.42638E+00  0.00000E+00
  0.42026E+00  0.13987E+00  0.00000E+00  0.0  0.0  0.0 -0.65937E+00  0.0  0.45653E+00  0.10000E-01
  0.42700E+00  0.13987E+00  0.00000E+00  0.0  0.0  0.0 -0.18010E+00  0.0  0.67568E+00  0.50000E-01
  0.43543E+00  0.13987E+00  0.00000E+00  0.0  0.0  0.0  0.35535E-01  0.0  0.76641E+00  0.10000E+00
  0.45228E+00  0.13987E+00  0.00000E+00  0.0  0.0  0.0  0.15849E+00  0.0  0.81774E+00  0.20000E+00
  0.46914E+00  0.13987E+00  0.00000E+00  0.0  0.0  0.0  0.24755E+00  0.0  0.85502E+00  0.30000E+00
  0.48599E+00  0.13987E+00  0.00000E+00  0.0  0.0  0.0  0.29554E+00  0.0  0.87519E+00  0.40000E+00
  0.50284E+00  0.13987E+00  0.00000E+00  0.0  0.0  0.0  0.30803E+00  0.0  0.88046E+00  0.50000E+00
  0.51970E+00  0.13987E+00  0.00000E+00  0.0  0.0  0.0  0.17168E+00  0.0  0.82325E+00  0.60000E+00
  0.53655E+00  0.13987E+00  0.00000E+00  0.0  0.0  0.0 -0.34542E-01  0.0  0.73710E+00  0.70000E+00
  0.55340E+00  0.13987E+00  0.00000E+00  0.0  0.0  0.0 -0.23597E+00  0.0  0.65177E+00  0.80000E+00
  0.57026E+00  0.13987E+00  0.00000E+00  0.0  0.0  0.0 -0.27044E+00  0.0  0.63690E+00  0.90000E+00
  0.57868E+00  0.13987E+00  0.00000E+00  0.0  0.0  0.0 -0.24646E+00  0.0  0.64726E+00  0.95000E+00
  0.58711E+00  0.13987E+00  0.00000E+00  0.0  0.0  0.0 -0.11276E+00  0.0  0.70422E+00  0.10000E+01
  0.57868E+00  0.13987E+00  0.00000E+00  0.0  0.0  0.0 -0.31316E-01  0.0  0.73845E+00  0.95000E+00
  0.57026E+00  0.13987E+00  0.00000E+00  0.0  0.0  0.0  0.95109E-01  0.0  0.79128E+00  0.90000E+00
  0.55340E+00  0.13987E+00  0.00000E+00  0.0  0.0  0.0  0.28841E+00  0.0  0.87219E+00  0.80000E+00
  0.53655E+00  0.13987E+00  0.00000E+00  0.0  0.0  0.0  0.42784E+00  0.0  0.93136E+00  0.70000E+00
  0.52812E+00  0.13987E+00  0.00000E+00  0.0  0.0  0.0  0.49542E+00  0.0  0.96047E+00  0.65000E+00
  0.51970E+00  0.13987E+00  0.00000E+00  0.0  0.0  0.0  0.54304E+00  0.0  0.98119E+00  0.60000E+00
  0.51127E+00  0.13987E+00  0.00000E+00  0.0  0.0  0.0  0.56399E+00  0.0  0.99036E+00  0.55000E+00
  0.50284E+00  0.13987E+00  0.00000E+00  0.0  0.0  0.0  0.57449E+00  0.0  0.99498E+00  0.50000E+00
  0.49442E+00  0.13987E+00  0.00000E+00  0.0  0.0  0.0  0.59550E+00  0.0  0.10042E+01  0.45000E+00
  0.48599E+00  0.13987E+00  0.00000E+00  0.0  0.0  0.0  0.61847E+00  0.0  0.10144E+01  0.40000E+00
  0.47756E+00  0.13987E+00  0.00000E+00  0.0  0.0  0.0  0.82462E+00  0.0  0.11086E+01  0.35000E+00
  0.46914E+00  0.13987E+00  0.00000E+00  0.0  0.0  0.0  0.10080E+01  0.0  0.11978E+01  0.30000E+00
  0.46071E+00  0.13987E+00  0.00000E+00  0.0  0.0  0.0  0.10551E+01  0.0  0.12219E+01  0.25000E+00
  0.45228E+00  0.13987E+00  0.00000E+00  0.0  0.0  0.0  0.12920E+01  0.0  0.13514E+01  0.20000E+00
  0.44386E+00  0.13987E+00  0.00000E+00  0.0  0.0  0.0  0.14228E+01  0.0  0.14310E+01  0.15000E+00
  0.43543E+00  0.13987E+00  0.00000E+00  0.0  0.0  0.0  0.14352E+01  0.0  0.14389E+01  0.10000E+00
  0.42700E+00  0.13987E+00  0.00000E+00  0.0  0.0  0.0  0.12840E+01  0.0  0.13467E+01  0.50000E-01
  0.42363E+00  0.13987E+00  0.00000E+00  0.0  0.0  0.0  0.89121E+00  0.0  0.11403E+01  0.30000E-01
  0.42195E+00  0.13987E+00  0.00000E+00  0.0  0.0  0.0  0.65239E+00  0.0  0.10296E+01  0.20000E-01
ZONE T=" wing section 3 y/b 0.331", I=   33, J=    1, K=    1, F=POINT
  0.44655E+00  0.19453E+00  0.00000E+00  0.0  0.0  0.0 -0.66647E+00  0.0  0.45289E+00  0.00000E+00
  0.44795E+00  0.19453E+00  0.00000E+00  0.0  0.0  0.0 -0.60903E+00  0.0  0.48182E+00  0.10000E-01
  0.45076E+00  0.19453E+00  0.00000E+00  0.0  0.0  0.0 -0.33654E+00  0.0  0.60805E+00  0.30000E-01
  0.45357E+00  0.19453E+00  0.00000E+00  0.0  0.0  0.0 -0.16504E+00  0.0  0.68208E+00  0.50000E-01
  0.47466E+00  0.19453E+00  0.00000E+00  0.0  0.0  0.0  0.17001E+00  0.0  0.82255E+00  0.20000E+00
  0.48871E+00  0.19453E+00  0.00000E+00  0.0  0.0  0.0  0.27347E+00  0.0  0.86590E+00  0.30000E+00
  0.50277E+00  0.19453E+00  0.00000E+00  0.0  0.0  0.0  0.29766E+00  0.0  0.87609E+00  0.40000E+00
  0.51683E+00  0.19453E+00  0.00000E+00  0.0  0.0  0.0  0.26415E+00  0.0  0.86199E+00  0.50000E+00
  0.53088E+00  0.19453E+00  0.00000E+00  0.0  0.0  0.0  0.12766E+00  0.0  0.80486E+00  0.60000E+00
  0.54494E+00  0.19453E+00  0.00000E+00  0.0  0.0  0.0 -0.73840E-01  0.0  0.72061E+00  0.70000E+00
  0.55900E+00  0.19453E+00  0.00000E+00  0.0  0.0  0.0 -0.26454E+00  0.0  0.63946E+00  0.80000E+00
  0.57305E+00  0.19453E+00  0.00000E+00  0.0  0.0  0.0 -0.28755E+00  0.0  0.62947E+00  0.90000E+00
  0.58008E+00  0.19453E+00  0.00000E+00  0.0  0.0  0.0 -0.25539E+00  0.0  0.64341E+00  0.95000E+00
  0.58711E+00  0.19453E+00  0.00000E+00  0.0  0.0  0.0 -0.10891E+00  0.0  0.70584E+00  0.10000E+01
  0.58008E+00  0.19453E+00  0.00000E+00  0.0  0.0  0.0 -0.17024E-01  0.0  0.74444E+00  0.95000E+00
  0.57305E+00  0.19453E+00  0.00000E+00  0.0  0.0  0.0  0.98270E-01  0.0  0.79260E+00  0.90000E+00
  0.55900E+00  0.19453E+00  0.00000E+00  0.0  0.0  0.0  0.31044E+00  0.0  0.88148E+00  0.80000E+00
  0.54494E+00  0.19453E+00  0.00000E+00  0.0  0.0  0.0  0.50678E+00  0.0  0.96539E+00  0.70000E+00
  0.53791E+00  0.19453E+00  0.00000E+00  0.0  0.0  0.0  0.59103E+00  0.0  0.10023E+01  0.65000E+00
  0.53088E+00  0.19453E+00  0.00000E+00  0.0  0.0  0.0  0.63177E+00  0.0  0.10203E+01  0.60000E+00
  0.52386E+00  0.19453E+00  0.00000E+00  0.0  0.0  0.0  0.60668E+00  0.0  0.10092E+01  0.55000E+00
  0.51683E+00  0.19453E+00  0.00000E+00  0.0  0.0  0.0  0.59564E+00  0.0  0.10043E+01  0.50000E+00
  0.50980E+00  0.19453E+00  0.00000E+00  0.0  0.0  0.0  0.57910E+00  0.0  0.99701E+00  0.45000E+00
  0.50277E+00  0.19453E+00  0.00000E+00  0.0  0.0  0.0  0.60377E+00  0.0  0.10079E+01  0.40000E+00
  0.49574E+00  0.19453E+00  0.00000E+00  0.0  0.0  0.0  0.82349E+00  0.0  0.11081E+01  0.35000E+00
  0.48871E+00  0.19453E+00  0.00000E+00  0.0  0.0  0.0  0.12933E+01  0.0  0.13522E+01  0.30000E+00
  0.48169E+00  0.19453E+00  0.00000E+00  0.0  0.0  0.0  0.13672E+01  0.0  0.13963E+01  0.25000E+00
  0.47466E+00  0.19453E+00  0.00000E+00  0.0  0.0  0.0  0.14143E+01  0.0  0.14256E+01  0.20000E+00
  0.46763E+00  0.19453E+00  0.00000E+00  0.0  0.0  0.0  0.14142E+01  0.0  0.14255E+01  0.15000E+00
  0.46060E+00  0.19453E+00  0.00000E+00  0.0  0.0  0.0  0.14156E+01  0.0  0.14264E+01  0.10000E+00
  0.45357E+00  0.19453E+00  0.00000E+00  0.0  0.0  0.0  0.11617E+01  0.0  0.12782E+01  0.50000E-01
  0.44936E+00  0.19453E+00  0.00000E+00  0.0  0.0  0.0  0.60937E+00  0.0  0.10104E+01  0.20000E-01
  0.44795E+00  0.19453E+00  0.00000E+00  0.0  0.0  0.0  0.30176E+00  0.0  0.87782E+00  0.10000E-01
ZONE T="wing section 4 y/b 0.377", I=   32, J=    1, K=    1, F=POINT
  0.46038E+00  0.22156E+00  0.00000E+00  0.0  0.0  0.0 -0.74316E+00  0.0  0.41226E+00  0.00000E+00
  0.46165E+00  0.22156E+00  0.00000E+00  0.0  0.0  0.0 -0.59397E+00  0.0  0.48924E+00  0.10000E-01
  0.46418E+00  0.22156E+00  0.00000E+00  0.0  0.0  0.0 -0.29612E+00  0.0  0.62575E+00  0.30000E-01
  0.46672E+00  0.22156E+00  0.00000E+00  0.0  0.0  0.0 -0.15377E+00  0.0  0.68687E+00  0.50000E-01
  0.47305E+00  0.22156E+00  0.00000E+00  0.0  0.0  0.0 -0.29509E-01  0.0  0.73921E+00  0.10000E+00
  0.48573E+00  0.22156E+00  0.00000E+00  0.0  0.0  0.0  0.14777E+00  0.0  0.81326E+00  0.20000E+00
  0.49840E+00  0.22156E+00  0.00000E+00  0.0  0.0  0.0  0.27071E+00  0.0  0.86474E+00  0.30000E+00
  0.51107E+00  0.22156E+00  0.00000E+00  0.0  0.0  0.0  0.29614E+00  0.0  0.87545E+00  0.40000E+00
  0.52374E+00  0.22156E+00  0.00000E+00  0.0  0.0  0.0  0.24017E+00  0.0  0.85192E+00  0.50000E+00
  0.53642E+00  0.22156E+00  0.00000E+00  0.0  0.0  0.0  0.10638E+00  0.0  0.79598E+00  0.60000E+00
  0.54909E+00  0.22156E+00  0.00000E+00  0.0  0.0  0.0 -0.73830E-01  0.0  0.72061E+00  0.70000E+00
  0.56176E+00  0.22156E+00  0.00000E+00  0.0  0.0  0.0 -0.27298E+00  0.0  0.63580E+00  0.80000E+00
  0.57444E+00  0.22156E+00  0.00000E+00  0.0  0.0  0.0 -0.30204E+00  0.0  0.62317E+00  0.90000E+00
  0.58077E+00  0.22156E+00  0.00000E+00  0.0  0.0  0.0 -0.25539E+00  0.0  0.64341E+00  0.95000E+00
  0.58711E+00  0.22156E+00  0.00000E+00  0.0  0.0  0.0 -0.80335E-01  0.0  0.71788E+00  0.10000E+01
  0.57444E+00  0.22156E+00  0.00000E+00  0.0  0.0  0.0  0.11002E+00  0.0  0.79750E+00  0.90000E+00
  0.56176E+00  0.22156E+00  0.00000E+00  0.0  0.0  0.0  0.35078E+00  0.0  0.89854E+00  0.80000E+00
  0.54909E+00  0.22156E+00  0.00000E+00  0.0  0.0  0.0  0.56781E+00  0.0  0.99204E+00  0.70000E+00
  0.54275E+00  0.22156E+00  0.00000E+00  0.0  0.0  0.0  0.66664E+00  0.0  0.10360E+01  0.65000E+00
  0.53642E+00  0.22156E+00  0.00000E+00  0.0  0.0  0.0  0.68311E+00  0.0  0.10434E+01  0.60000E+00
  0.53008E+00  0.22156E+00  0.00000E+00  0.0  0.0  0.0  0.64621E+00  0.0  0.10268E+01  0.55000E+00
  0.52374E+00  0.22156E+00  0.00000E+00  0.0  0.0  0.0  0.60688E+00  0.0  0.10093E+01  0.50000E+00
  0.51741E+00  0.22156E+00  0.00000E+00  0.0  0.0  0.0  0.59186E+00  0.0  0.10026E+01  0.45000E+00
  0.51107E+00  0.22156E+00  0.00000E+00  0.0  0.0  0.0  0.68868E+00  0.0  0.10459E+01  0.40000E+00
  0.50474E+00  0.22156E+00  0.00000E+00  0.0  0.0  0.0  0.12472E+01  0.0  0.13256E+01  0.35000E+00
  0.49840E+00  0.22156E+00  0.00000E+00  0.0  0.0  0.0  0.12699E+01  0.0  0.13386E+01  0.30000E+00
  0.49206E+00  0.22156E+00  0.00000E+00  0.0  0.0  0.0  0.13078E+01  0.0  0.13607E+01  0.25000E+00
  0.48573E+00  0.22156E+00  0.00000E+00  0.0  0.0  0.0  0.13240E+01  0.0  0.13703E+01  0.20000E+00
  0.47939E+00  0.22156E+00  0.00000E+00  0.0  0.0  0.0  0.13073E+01  0.0  0.13603E+01  0.15000E+00
  0.47305E+00  0.22156E+00  0.00000E+00  0.0  0.0  0.0  0.13136E+01  0.0  0.13640E+01  0.10000E+00
  0.46672E+00  0.22156E+00  0.00000E+00  0.0  0.0  0.0  0.11743E+01  0.0  0.12850E+01  0.50000E-01
  0.46291E+00  0.22156E+00  0.00000E+00  0.0  0.0  0.0  0.64251E+00  0.0  0.10251E+01  0.20000E-01
ZONE T="wing section 5 y/b 0.411", I=   32, J=    1, K=    1, F=POINT
  0.47000E+00  0.24037E+00  0.00000E+00  0.0  0.0  0.0 -0.72586E+00  0.0  0.42166E+00  0.00000E+00
  0.47119E+00  0.24037E+00  0.00000E+00  0.0  0.0  0.0 -0.56507E+00  0.0  0.50328E+00  0.10000E-01
  0.47357E+00  0.24037E+00  0.00000E+00  0.0  0.0  0.0 -0.28829E+00  0.0  0.62916E+00  0.30000E-01
  0.47595E+00  0.24037E+00  0.00000E+00  0.0  0.0  0.0 -0.18415E+00  0.0  0.67395E+00  0.50000E-01
  0.48189E+00  0.24037E+00  0.00000E+00  0.0  0.0  0.0 -0.41376E-01  0.0  0.73424E+00  0.10000E+00
  0.49379E+00  0.24037E+00  0.00000E+00  0.0  0.0  0.0  0.12398E+00  0.0  0.80333E+00  0.20000E+00
  0.50568E+00  0.24037E+00  0.00000E+00  0.0  0.0  0.0  0.25314E+00  0.0  0.85736E+00  0.30000E+00
  0.51757E+00  0.24037E+00  0.00000E+00  0.0  0.0  0.0  0.27670E+00  0.0  0.86726E+00  0.40000E+00
  0.52946E+00  0.24037E+00  0.00000E+00  0.0  0.0  0.0  0.22341E+00  0.0  0.84489E+00  0.50000E+00
  0.54135E+00  0.24037E+00  0.00000E+00  0.0  0.0  0.0  0.96933E-01  0.0  0.79204E+00  0.60000E+00
  0.55325E+00  0.24037E+00  0.00000E+00  0.0  0.0  0.0 -0.90615E-01  0.0  0.71355E+00  0.70000E+00
  0.56514E+00  0.24037E+00  0.00000E+00  0.0  0.0  0.0 -0.26969E+00  0.0  0.63722E+00  0.80000E+00
  0.57703E+00  0.24037E+00  0.00000E+00  0.0  0.0  0.0 -0.29515E+00  0.0  0.62617E+00  0.90000E+00
  0.58892E+00  0.24037E+00  0.00000E+00  0.0  0.0  0.0 -0.47988E-01  0.0  0.73146E+00  0.10000E+01
  0.58297E+00  0.24037E+00  0.00000E+00  0.0  0.0  0.0  0.27900E-01  0.0  0.76322E+00  0.95000E+00
  0.57703E+00  0.24037E+00  0.00000E+00  0.0  0.0  0.0  0.13099E+00  0.0  0.80625E+00  0.90000E+00
  0.56514E+00  0.24037E+00  0.00000E+00  0.0  0.0  0.0  0.35544E+00  0.0  0.90051E+00  0.80000E+00
  0.55325E+00  0.24037E+00  0.00000E+00  0.0  0.0  0.0  0.59566E+00  0.0  0.10043E+01  0.70000E+00
  0.54730E+00  0.24037E+00  0.00000E+00  0.0  0.0  0.0  0.69368E+00  0.0  0.10482E+01  0.65000E+00
  0.54135E+00  0.24037E+00  0.00000E+00  0.0  0.0  0.0  0.68220E+00  0.0  0.10430E+01  0.60000E+00
  0.53541E+00  0.24037E+00  0.00000E+00  0.0  0.0  0.0  0.66172E+00  0.0  0.10337E+01  0.55000E+00
  0.52946E+00  0.24037E+00  0.00000E+00  0.0  0.0  0.0  0.61430E+00  0.0  0.10126E+01  0.50000E+00
  0.52352E+00  0.24037E+00  0.00000E+00  0.0  0.0  0.0  0.61112E+00  0.0  0.10112E+01  0.45000E+00
  0.51757E+00  0.24037E+00  0.00000E+00  0.0  0.0  0.0  0.94295E+00  0.0  0.11655E+01  0.40000E+00
  0.51162E+00  0.24037E+00  0.00000E+00  0.0  0.0  0.0  0.12265E+01  0.0  0.13139E+01  0.35000E+00
  0.50568E+00  0.24037E+00  0.00000E+00  0.0  0.0  0.0  0.12244E+01  0.0  0.13127E+01  0.30000E+00
  0.49973E+00  0.24037E+00  0.00000E+00  0.0  0.0  0.0  0.12526E+01  0.0  0.13287E+01  0.25000E+00
  0.49379E+00  0.24037E+00  0.00000E+00  0.0  0.0  0.0  0.12465E+01  0.0  0.13252E+01  0.20000E+00
  0.48784E+00  0.24037E+00  0.00000E+00  0.0  0.0  0.0  0.12495E+01  0.0  0.13269E+01  0.15000E+00
  0.48189E+00  0.24037E+00  0.00000E+00  0.0  0.0  0.0  0.12839E+01  0.0  0.13467E+01  0.10000E+00
  0.47238E+00  0.24037E+00  0.00000E+00  0.0  0.0  0.0  0.58514E+00  0.0  0.99967E+00  0.20000E-01
  0.47119E+00  0.24037E+00  0.00000E+00  0.0  0.0  0.0  0.11916E+00  0.0  0.80132E+00  0.10000E-01
ZONE T="wing section 6 y/b 0.514", I=   32, J=    1, K=    1, F=POINT
  0.50098E+00  0.30090E+00  0.00000E+00  0.0  0.0  0.0 -0.76899E+00  0.0  0.39794E+00  0.00000E+00
  0.50207E+00  0.30090E+00  0.00000E+00  0.0  0.0  0.0 -0.61969E+00  0.0  0.47654E+00  0.10000E-01
  0.50642E+00  0.30090E+00  0.00000E+00  0.0  0.0  0.0 -0.18904E+00  0.0  0.67187E+00  0.50000E-01
  0.51186E+00  0.30090E+00  0.00000E+00  0.0  0.0  0.0 -0.49704E-01  0.0  0.73074E+00  0.10000E+00
  0.52273E+00  0.30090E+00  0.00000E+00  0.0  0.0  0.0  0.10374E+00  0.0  0.79488E+00  0.20000E+00
  0.53361E+00  0.30090E+00  0.00000E+00  0.0  0.0  0.0  0.22920E+00  0.0  0.84732E+00  0.30000E+00
  0.54448E+00  0.30090E+00  0.00000E+00  0.0  0.0  0.0  0.23242E+00  0.0  0.84867E+00  0.40000E+00
  0.55536E+00  0.30090E+00  0.00000E+00  0.0  0.0  0.0  0.15135E+00  0.0  0.81476E+00  0.50000E+00
  0.56624E+00  0.30090E+00  0.00000E+00  0.0  0.0  0.0  0.43116E-01  0.0  0.76958E+00  0.60000E+00
  0.57711E+00  0.30090E+00  0.00000E+00  0.0  0.0  0.0 -0.10977E+00  0.0  0.70548E+00  0.70000E+00
  0.58799E+00  0.30090E+00  0.00000E+00  0.0  0.0  0.0 -0.26085E+00  0.0  0.64105E+00  0.80000E+00
  0.59886E+00  0.30090E+00  0.00000E+00  0.0  0.0  0.0 -0.28064E+00  0.0  0.63248E+00  0.90000E+00
  0.60430E+00  0.30090E+00  0.00000E+00  0.0  0.0  0.0 -0.23097E+00  0.0  0.65393E+00  0.95000E+00
  0.60974E+00  0.30090E+00  0.00000E+00  0.0  0.0  0.0 -0.56603E-01  0.0  0.72785E+00  0.10000E+01
  0.60430E+00  0.30090E+00  0.00000E+00  0.0  0.0  0.0 -0.95381E-02  0.0  0.74757E+00  0.95000E+00
  0.59886E+00  0.30090E+00  0.00000E+00  0.0  0.0  0.0  0.79350E-01  0.0  0.78470E+00  0.90000E+00
  0.58799E+00  0.30090E+00  0.00000E+00  0.0  0.0  0.0  0.28407E+00  0.0  0.87037E+00  0.80000E+00
  0.57711E+00  0.30090E+00  0.00000E+00  0.0  0.0  0.0  0.50745E+00  0.0  0.96568E+00  0.70000E+00
  0.57167E+00  0.30090E+00  0.00000E+00  0.0  0.0  0.0  0.59937E+00  0.0  0.10060E+01  0.65000E+00
  0.56624E+00  0.30090E+00  0.00000E+00  0.0  0.0  0.0  0.65258E+00  0.0  0.10296E+01  0.60000E+00
  0.56080E+00  0.30090E+00  0.00000E+00  0.0  0.0  0.0  0.64829E+00  0.0  0.10277E+01  0.55000E+00
  0.55536E+00  0.30090E+00  0.00000E+00  0.0  0.0  0.0  0.61637E+00  0.0  0.10135E+01  0.50000E+00
  0.54992E+00  0.30090E+00  0.00000E+00  0.0  0.0  0.0  0.59849E+00  0.0  0.10056E+01  0.45000E+00
  0.54448E+00  0.30090E+00  0.00000E+00  0.0  0.0  0.0  0.10001E+01  0.0  0.11939E+01  0.40000E+00
  0.53905E+00  0.30090E+00  0.00000E+00  0.0  0.0  0.0  0.11422E+01  0.0  0.12677E+01  0.35000E+00
  0.53361E+00  0.30090E+00  0.00000E+00  0.0  0.0  0.0  0.11766E+01  0.0  0.12863E+01  0.30000E+00
  0.52817E+00  0.30090E+00  0.00000E+00  0.0  0.0  0.0  0.12106E+01  0.0  0.13050E+01  0.25000E+00
  0.51186E+00  0.30090E+00  0.00000E+00  0.0  0.0  0.0  0.12857E+01  0.0  0.13477E+01  0.10000E+00
  0.50642E+00  0.30090E+00  0.00000E+00  0.0  0.0  0.0  0.11774E+01  0.0  0.12867E+01  0.50000E-01
  0.50424E+00  0.30090E+00  0.00000E+00  0.0  0.0  0.0  0.83364E+00  0.0  0.11128E+01  0.30000E-01
  0.50315E+00  0.30090E+00  0.00000E+00  0.0  0.0  0.0  0.61758E+00  0.0  0.10140E+01  0.20000E-01
  0.50207E+00  0.30090E+00  0.00000E+00  0.0  0.0  0.0  0.78090E-01  0.0  0.78418E+00  0.10000E-01
ZONE T="wing section 7 y/b 0.638", I=   31, J=    1, K=    1, F=POINT
  0.53797E+00  0.37319E+00  0.00000E+00  0.0  0.0  0.0 -0.73463E+00  0.0  0.41691E+00  0.00000E+00
  0.53894E+00  0.37319E+00  0.00000E+00  0.0  0.0  0.0 -0.66452E+00  0.0  0.45389E+00  0.10000E-01
  0.54087E+00  0.37319E+00  0.00000E+00  0.0  0.0  0.0 -0.34945E+00  0.0  0.60235E+00  0.30000E-01
  0.54280E+00  0.37319E+00  0.00000E+00  0.0  0.0  0.0 -0.23182E+00  0.0  0.65356E+00  0.50000E-01
  0.54763E+00  0.37319E+00  0.00000E+00  0.0  0.0  0.0 -0.62937E-01  0.0  0.72519E+00  0.10000E+00
  0.55730E+00  0.37319E+00  0.00000E+00  0.0  0.0  0.0  0.83062E-01  0.0  0.78625E+00  0.20000E+00
  0.56696E+00  0.37319E+00  0.00000E+00  0.0  0.0  0.0  0.20103E+00  0.0  0.83552E+00  0.30000E+00
  0.57662E+00  0.37319E+00  0.00000E+00  0.0  0.0  0.0  0.20731E+00  0.0  0.83815E+00  0.40000E+00
  0.58629E+00  0.37319E+00  0.00000E+00  0.0  0.0  0.0  0.14729E+00  0.0  0.81306E+00  0.50000E+00
  0.59595E+00  0.37319E+00  0.00000E+00  0.0  0.0  0.0  0.38186E-01  0.0  0.76752E+00  0.60000E+00
  0.60561E+00  0.37319E+00  0.00000E+00  0.0  0.0  0.0 -0.11140E+00  0.0  0.70479E+00  0.70000E+00
  0.62494E+00  0.37319E+00  0.00000E+00  0.0  0.0  0.0 -0.27534E+00  0.0  0.63478E+00  0.90000E+00
  0.62977E+00  0.37319E+00  0.00000E+00  0.0  0.0  0.0 -0.22782E+00  0.0  0.65528E+00  0.95000E+00
  0.63460E+00  0.37319E+00  0.00000E+00  0.0  0.0  0.0 -0.62018E-01  0.0  0.72558E+00  0.10000E+01
  0.62977E+00  0.37319E+00  0.00000E+00  0.0  0.0  0.0 -0.75271E-02  0.0  0.74841E+00  0.95000E+00
  0.62494E+00  0.37319E+00  0.00000E+00  0.0  0.0  0.0  0.67338E-01  0.0  0.77969E+00  0.90000E+00
  0.61528E+00  0.37319E+00  0.00000E+00  0.0  0.0  0.0  0.26430E+00  0.0  0.86205E+00  0.80000E+00
  0.60561E+00  0.37319E+00  0.00000E+00  0.0  0.0  0.0  0.47808E+00  0.0  0.95297E+00  0.70000E+00
  0.59595E+00  0.37319E+00  0.00000E+00  0.0  0.0  0.0  0.57531E+00  0.0  0.99534E+00  0.60000E+00
  0.59112E+00  0.37319E+00  0.00000E+00  0.0  0.0  0.0  0.61286E+00  0.0  0.10119E+01  0.55000E+00
  0.58629E+00  0.37319E+00  0.00000E+00  0.0  0.0  0.0  0.59760E+00  0.0  0.10052E+01  0.50000E+00
  0.58146E+00  0.37319E+00  0.00000E+00  0.0  0.0  0.0  0.57873E+00  0.0  0.99685E+00  0.45000E+00
  0.57662E+00  0.37319E+00  0.00000E+00  0.0  0.0  0.0  0.69561E+00  0.0  0.10490E+01  0.40000E+00
  0.57179E+00  0.37319E+00  0.00000E+00  0.0  0.0  0.0  0.57531E+00  0.0  0.99534E+00  0.35000E+00
  0.56696E+00  0.37319E+00  0.00000E+00  0.0  0.0  0.0  0.12029E+01  0.0  0.13008E+01  0.30000E+00
  0.56213E+00  0.37319E+00  0.00000E+00  0.0  0.0  0.0  0.12431E+01  0.0  0.13233E+01  0.25000E+00
  0.55730E+00  0.37319E+00  0.00000E+00  0.0  0.0  0.0  0.12576E+01  0.0  0.13316E+01  0.20000E+00
  0.55247E+00  0.37319E+00  0.00000E+00  0.0  0.0  0.0  0.12566E+01  0.0  0.13309E+01  0.15000E+00
  0.54280E+00  0.37319E+00  0.00000E+00  0.0  0.0  0.0  0.11812E+01  0.0  0.12888E+01  0.50000E-01
  0.53990E+00  0.37319E+00  0.00000E+00  0.0  0.0  0.0  0.61182E+00  0.0  0.10115E+01  0.20000E-01
  0.53894E+00  0.37319E+00  0.00000E+00  0.0  0.0  0.0  0.14722E+00  0.0  0.81303E+00  0.10000E-01
ZONE T="wing section 8 y/b 0.847", I=   21, J=    1, K=    1, F=POINT
  0.67685E+00  0.49602E+00  0.00000E+00  0.0  0.0  0.0  0.33280E-01  0.0  0.76547E+00  0.10000E+01
  0.67305E+00  0.49602E+00  0.00000E+00  0.0  0.0  0.0 -0.26803E-01  0.0  0.74034E+00  0.95000E+00
  0.66925E+00  0.49602E+00  0.00000E+00  0.0  0.0  0.0  0.49106E-01  0.0  0.77208E+00  0.90000E+00
  0.66164E+00  0.49602E+00  0.00000E+00  0.0  0.0  0.0  0.23642E+00  0.0  0.85035E+00  0.80000E+00
  0.65404E+00  0.49602E+00  0.00000E+00  0.0  0.0  0.0  0.44770E+00  0.0  0.93988E+00  0.70000E+00
  0.65024E+00  0.49602E+00  0.00000E+00  0.0  0.0  0.0  0.52985E+00  0.0  0.97543E+00  0.65000E+00
  0.64644E+00  0.49602E+00  0.00000E+00  0.0  0.0  0.0  0.57110E+00  0.0  0.99349E+00  0.60000E+00
  0.64264E+00  0.49602E+00  0.00000E+00  0.0  0.0  0.0  0.58067E+00  0.0  0.99770E+00  0.55000E+00
  0.63884E+00  0.49602E+00  0.00000E+00  0.0  0.0  0.0  0.57272E+00  0.0  0.99420E+00  0.50000E+00
  0.63504E+00  0.49602E+00  0.00000E+00  0.0  0.0  0.0  0.54895E+00  0.0  0.98377E+00  0.45000E+00
  0.63123E+00  0.49602E+00  0.00000E+00  0.0  0.0  0.0  0.51871E+00  0.0  0.97058E+00  0.40000E+00
  0.62743E+00  0.49602E+00  0.00000E+00  0.0  0.0  0.0  0.66457E+00  0.0  0.10350E+01  0.35000E+00
  0.62363E+00  0.49602E+00  0.00000E+00  0.0  0.0  0.0  0.11282E+01  0.0  0.12602E+01  0.30000E+00
  0.61983E+00  0.49602E+00  0.00000E+00  0.0  0.0  0.0  0.12193E+01  0.0  0.13099E+01  0.25000E+00
  0.61603E+00  0.49602E+00  0.00000E+00  0.0  0.0  0.0  0.12267E+01  0.0  0.13140E+01  0.20000E+00
  0.61223E+00  0.49602E+00  0.00000E+00  0.0  0.0  0.0  0.12376E+01  0.0  0.13202E+01  0.15000E+00
  0.60843E+00  0.49602E+00  0.00000E+00  0.0  0.0  0.0  0.12516E+01  0.0  0.13281E+01  0.10000E+00
  0.60463E+00  0.49602E+00  0.00000E+00  0.0  0.0  0.0  0.11098E+01  0.0  0.12504E+01  0.50000E-01
  0.60235E+00  0.49602E+00  0.00000E+00  0.0  0.0  0.0  0.58273E+00  0.0  0.99861E+00  0.20000E-01
  0.60159E+00  0.49602E+00  0.00000E+00  0.0  0.0  0.0  0.12521E+00  0.0  0.80384E+00  0.10000E-01
  0.60083E+00  0.49602E+00  0.00000E+00  0.0  0.0  0.0 -0.77092E+00  0.0  0.39686E+00  0.00000E+00
